 Entering Gaussian System, Link 0=g09
 Initial command:
 /g09root/g09/l1.exe /export/home/sapatel/g09_scratch/Gau-7895.inp -scrdir=/export/home/sapatel/g09_scratch/
 Entering Link 1 = /g09root/g09/l1.exe PID=      7897.
  
 Copyright (c) 1988,1990,1992,1993,1995,1998,2003,2009, Gaussian, Inc.
                  All Rights Reserved.
  
 This is part of the Gaussian(R) 09 program.  It is based on
 the Gaussian(R) 03 system (copyright 2003, Gaussian, Inc.),
 the Gaussian(R) 98 system (copyright 1998, Gaussian, Inc.),
 the Gaussian(R) 94 system (copyright 1995, Gaussian, Inc.),
 the Gaussian 92(TM) system (copyright 1992, Gaussian, Inc.),
 the Gaussian 90(TM) system (copyright 1990, Gaussian, Inc.),
 the Gaussian 88(TM) system (copyright 1988, Gaussian, Inc.),
 the Gaussian 86(TM) system (copyright 1986, Carnegie Mellon
 University), and the Gaussian 82(TM) system (copyright 1983,
 Carnegie Mellon University). Gaussian is a federally registered
 trademark of Gaussian, Inc.
  
 This software contains proprietary and confidential information,
 including trade secrets, belonging to Gaussian, Inc.
  
 This software is provided under written license and may be
 used, copied, transmitted, or stored only in accord with that
 written license.
  
 The following legend is applicable only to US Government
 contracts under FAR:
  
                    RESTRICTED RIGHTS LEGEND
  
 Use, reproduction and disclosure by the US Government is
 subject to restrictions as set forth in subparagraphs (a)
 and (c) of the Commercial Computer Software - Restricted
 Rights clause in FAR 52.227-19.
  
 Gaussian, Inc.
 340 Quinnipiac St., Bldg. 40, Wallingford CT 06492
  
  
 ---------------------------------------------------------------
 Warning -- This program may not be used in any manner that
 competes with the business of Gaussian, Inc. or will provide
 assistance to any competitor of Gaussian, Inc.  The licensee
 of this program is prohibited from giving any competitor of
 Gaussian, Inc. access to this program.  By using this program,
 the user acknowledges that Gaussian, Inc. is engaged in the
 business of creating and licensing software in the field of
 computational chemistry and represents and warrants to the
 licensee that it is not a competitor of Gaussian, Inc. and that
 it will not use this program in any manner prohibited above.
 ---------------------------------------------------------------
  

 Cite this work as:
 Gaussian 09, Revision A.02,
 M. J. Frisch, G. W. Trucks, H. B. Schlegel, G. E. Scuseria, 
 M. A. Robb, J. R. Cheeseman, G. Scalmani, V. Barone, B. Mennucci, 
 G. A. Petersson, H. Nakatsuji, M. Caricato, X. Li, H. P. Hratchian, 
 A. F. Izmaylov, J. Bloino, G. Zheng, J. L. Sonnenberg, M. Hada, 
 M. Ehara, K. Toyota, R. Fukuda, J. Hasegawa, M. Ishida, T. Nakajima, 
 Y. Honda, O. Kitao, H. Nakai, T. Vreven, J. A. Montgomery, Jr., 
 J. E. Peralta, F. Ogliaro, M. Bearpark, J. J. Heyd, E. Brothers, 
 K. N. Kudin, V. N. Staroverov, R. Kobayashi, J. Normand, 
 K. Raghavachari, A. Rendell, J. C. Burant, S. S. Iyengar, J. Tomasi, 
 M. Cossi, N. Rega, J. M. Millam, M. Klene, J. E. Knox, J. B. Cross, 
 V. Bakken, C. Adamo, J. Jaramillo, R. Gomperts, R. E. Stratmann, 
 O. Yazyev, A. J. Austin, R. Cammi, C. Pomelli, J. W. Ochterski, 
 R. L. Martin, K. Morokuma, V. G. Zakrzewski, G. A. Voth, 
 P. Salvador, J. J. Dannenberg, S. Dapprich, A. D. Daniels, 
 O. Farkas, J. B. Foresman, J. V. Ortiz, J. Cioslowski, 
 and D. J. Fox, Gaussian, Inc., Wallingford CT, 2009.
 
 ******************************************
 Gaussian 09:  EM64L-G09RevA.02 11-Jun-2009
                16-Sep-2022 
 ******************************************
 %CPU=0-21
 SetSPE:  set environment variable "MP_BIND" = "yes"
 SetSPE:  set environment variable "MP_BLIST" = "0,1,2,3,4,5,6,7,8,9,10,11,12,13,14,15,16,17,18,19,20,21"
 Will use up to   22 processors via shared memory.
 %chk=molecule
 %Mem=1000MW
 ----------------------------------------------------------------------
 #HF/6-31G* SCF=tight Test Pop=MK iop(6/33=2) iop(6/42=6) opt # iop(6/5
 0=1)
 ----------------------------------------------------------------------
 1/18=20,19=15,38=1/1,3;
 2/9=110,12=2,17=6,18=5,40=1/2;
 3/5=1,6=6,7=1,11=9,16=1,25=1,30=1,71=1/1,2,3;
 4//1;
 5/5=2,32=2,38=5/2;
 6/7=2,8=2,9=2,10=2,15=8,20=1,28=1,33=2,42=6,50=1/1,2;
 7//1,2,3,16;
 1/18=20,19=15/3(2);
 2/9=110/2;
 99//99;
 2/9=110/2;
 3/5=1,6=6,7=1,11=9,16=1,25=1,30=1,71=1/1,2,3;
 4/5=5,16=3/1;
 5/5=2,32=2,38=5/2;
 7//1,2,3,16;
 1/18=20,19=15/3(-5);
 2/9=110/2;
 6/7=2,8=2,9=2,10=2,15=8,19=2,20=1,28=1,33=2,42=6,50=1/1,2;
 99/9=1/99;
 ---------------------
 remark line goes here
 ---------------------
 Symbolic Z-matrix:
 Charge =  0 Multiplicity = 1
 C                     27.227    7.495     4.707 
 C                     26.296    6.808     5.492 
 C                     25.601    5.73      4.944 
 C                     25.828    5.357     3.622 
 C                     26.757    6.047     2.845 
 C                     27.459    7.129     3.377 
 N                     28.367    7.806     2.655 
 C                     28.484    7.707     1.187 
 C                     27.362    8.359     0.495 
 N                     26.496    8.845    -0.063 
 H                     27.751    8.285     5.115 
 H                     26.125    7.096     6.468 
 H                     24.919    5.209     5.518 
 H                     25.306    4.565     3.215 
 H                     26.927    5.756     1.87 
 H                     28.989    8.402     3.132 
 H                     29.396    8.176     0.882 
 H                     28.473    6.669     0.926 
 

 GradGradGradGradGradGradGradGradGradGradGradGradGradGradGradGradGradGrad
 Berny optimization.
 Initialization pass.
                           ----------------------------
                           !    Initial Parameters    !
                           ! (Angstroms and Degrees)  !
 --------------------------                            --------------------------
 ! Name  Definition              Value          Derivative Info.                !
 --------------------------------------------------------------------------------
 ! R1    R(1,2)                  1.3982         estimate D2E/DX2                !
 ! R2    R(1,6)                  1.3988         estimate D2E/DX2                !
 ! R3    R(1,11)                 1.0321         estimate D2E/DX2                !
 ! R4    R(2,3)                  1.3948         estimate D2E/DX2                !
 ! R5    R(2,12)                 1.0319         estimate D2E/DX2                !
 ! R6    R(3,4)                  1.3922         estimate D2E/DX2                !
 ! R7    R(3,13)                 1.0325         estimate D2E/DX2                !
 ! R8    R(4,5)                  1.3939         estimate D2E/DX2                !
 ! R9    R(4,14)                 1.0322         estimate D2E/DX2                !
 ! R10   R(5,6)                  1.3952         estimate D2E/DX2                !
 ! R11   R(5,15)                 1.0316         estimate D2E/DX2                !
 ! R12   R(6,7)                  1.3432         estimate D2E/DX2                !
 ! R13   R(7,8)                  1.476          estimate D2E/DX2                !
 ! R14   R(7,16)                 0.9847         estimate D2E/DX2                !
 ! R15   R(8,9)                  1.4707         estimate D2E/DX2                !
 ! R16   R(8,17)                 1.0699         estimate D2E/DX2                !
 ! R17   R(8,18)                 1.0704         estimate D2E/DX2                !
 ! R18   R(9,10)                 1.1391         estimate D2E/DX2                !
 ! A1    A(2,1,6)              121.0437         estimate D2E/DX2                !
 ! A2    A(2,1,11)             119.4871         estimate D2E/DX2                !
 ! A3    A(6,1,11)             119.4691         estimate D2E/DX2                !
 ! A4    A(1,2,3)              119.4034         estimate D2E/DX2                !
 ! A5    A(1,2,12)             120.2812         estimate D2E/DX2                !
 ! A6    A(3,2,12)             120.3153         estimate D2E/DX2                !
 ! A7    A(2,3,4)              119.9267         estimate D2E/DX2                !
 ! A8    A(2,3,13)             120.0471         estimate D2E/DX2                !
 ! A9    A(4,3,13)             120.0262         estimate D2E/DX2                !
 ! A10   A(3,4,5)              120.3554         estimate D2E/DX2                !
 ! A11   A(3,4,14)             119.8368         estimate D2E/DX2                !
 ! A12   A(5,4,14)             119.8078         estimate D2E/DX2                !
 ! A13   A(4,5,6)              120.4439         estimate D2E/DX2                !
 ! A14   A(4,5,15)             119.8049         estimate D2E/DX2                !
 ! A15   A(6,5,15)             119.7512         estimate D2E/DX2                !
 ! A16   A(1,6,5)              118.8172         estimate D2E/DX2                !
 ! A17   A(1,6,7)              119.4283         estimate D2E/DX2                !
 ! A18   A(5,6,7)              121.74           estimate D2E/DX2                !
 ! A19   A(6,7,8)              123.6703         estimate D2E/DX2                !
 ! A20   A(6,7,16)             118.1448         estimate D2E/DX2                !
 ! A21   A(8,7,16)             118.185          estimate D2E/DX2                !
 ! A22   A(7,8,9)              112.1962         estimate D2E/DX2                !
 ! A23   A(7,8,17)             108.7654         estimate D2E/DX2                !
 ! A24   A(7,8,18)             107.8638         estimate D2E/DX2                !
 ! A25   A(9,8,17)             108.7743         estimate D2E/DX2                !
 ! A26   A(9,8,18)             107.8999         estimate D2E/DX2                !
 ! A27   A(17,8,18)            111.3672         estimate D2E/DX2                !
 ! A28   L(8,9,10,7,-1)        181.2728         estimate D2E/DX2                !
 ! A29   L(8,9,10,7,-2)        181.3416         estimate D2E/DX2                !
 ! D1    D(6,1,2,3)              0.8359         estimate D2E/DX2                !
 ! D2    D(6,1,2,12)          -179.1785         estimate D2E/DX2                !
 ! D3    D(11,1,2,3)          -179.1998         estimate D2E/DX2                !
 ! D4    D(11,1,2,12)            0.7857         estimate D2E/DX2                !
 ! D5    D(2,1,6,5)             -0.9378         estimate D2E/DX2                !
 ! D6    D(2,1,6,7)           -179.5778         estimate D2E/DX2                !
 ! D7    D(11,1,6,5)           179.0979         estimate D2E/DX2                !
 ! D8    D(11,1,6,7)             0.458          estimate D2E/DX2                !
 ! D9    D(1,2,3,4)             -0.677          estimate D2E/DX2                !
 ! D10   D(1,2,3,13)           179.314          estimate D2E/DX2                !
 ! D11   D(12,2,3,4)           179.3375         estimate D2E/DX2                !
 ! D12   D(12,2,3,13)           -0.6715         estimate D2E/DX2                !
 ! D13   D(2,3,4,5)              0.642          estimate D2E/DX2                !
 ! D14   D(2,3,4,14)          -179.3873         estimate D2E/DX2                !
 ! D15   D(13,3,4,5)          -179.349          estimate D2E/DX2                !
 ! D16   D(13,3,4,14)            0.6217         estimate D2E/DX2                !
 ! D17   D(3,4,5,6)             -0.7545         estimate D2E/DX2                !
 ! D18   D(3,4,5,15)           179.2419         estimate D2E/DX2                !
 ! D19   D(14,4,5,6)           179.2748         estimate D2E/DX2                !
 ! D20   D(14,4,5,15)           -0.7288         estimate D2E/DX2                !
 ! D21   D(4,5,6,1)              0.8904         estimate D2E/DX2                !
 ! D22   D(4,5,6,7)            179.4975         estimate D2E/DX2                !
 ! D23   D(15,5,6,1)          -179.106          estimate D2E/DX2                !
 ! D24   D(15,5,6,7)            -0.4989         estimate D2E/DX2                !
 ! D25   D(1,6,7,8)           -166.2085         estimate D2E/DX2                !
 ! D26   D(1,6,7,16)            13.7594         estimate D2E/DX2                !
 ! D27   D(5,6,7,8)             15.1926         estimate D2E/DX2                !
 ! D28   D(5,6,7,16)          -164.8394         estimate D2E/DX2                !
 ! D29   D(6,7,8,9)             71.1625         estimate D2E/DX2                !
 ! D30   D(6,7,8,17)          -168.457          estimate D2E/DX2                !
 ! D31   D(6,7,8,18)           -47.5404         estimate D2E/DX2                !
 ! D32   D(16,7,8,9)          -108.8054         estimate D2E/DX2                !
 ! D33   D(16,7,8,17)           11.5751         estimate D2E/DX2                !
 ! D34   D(16,7,8,18)          132.4917         estimate D2E/DX2                !
 --------------------------------------------------------------------------------
 Trust Radius=3.00D-01 FncErr=1.00D-07 GrdErr=1.00D-07
 Number of steps in this run=  91 maximum allowed number of steps= 108.
 GradGradGradGradGradGradGradGradGradGradGradGradGradGradGradGradGradGrad

                          Input orientation:                          
 ---------------------------------------------------------------------
 Center     Atomic      Atomic             Coordinates (Angstroms)
 Number     Number       Type             X           Y           Z
 ---------------------------------------------------------------------
      1          6           0       27.227000    7.495000    4.707000
      2          6           0       26.296000    6.808000    5.492000
      3          6           0       25.601000    5.730000    4.944000
      4          6           0       25.828000    5.357000    3.622000
      5          6           0       26.757000    6.047000    2.845000
      6          6           0       27.459000    7.129000    3.377000
      7          7           0       28.367000    7.806000    2.655000
      8          6           0       28.484000    7.707000    1.187000
      9          6           0       27.362000    8.359000    0.495000
     10          7           0       26.496000    8.845000   -0.063000
     11          1           0       27.751000    8.285000    5.115000
     12          1           0       26.125000    7.096000    6.468000
     13          1           0       24.919000    5.209000    5.518000
     14          1           0       25.306000    4.565000    3.215000
     15          1           0       26.927000    5.756000    1.870000
     16          1           0       28.989000    8.402000    3.132000
     17          1           0       29.396000    8.176000    0.882000
     18          1           0       28.473000    6.669000    0.926000
 ---------------------------------------------------------------------
                    Distance matrix (angstroms):
                    1          2          3          4          5
     1  C    0.000000
     2  C    1.398197   0.000000
     3  C    2.411487   1.394781   0.000000
     4  C    2.775873   2.412742   1.392244   0.000000
     5  C    2.405130   2.792535   2.417152   1.393869   0.000000
     6  C    1.398814   2.434920   2.804435   2.420779   1.395189
     7  N    2.367916   3.651522   4.147295   3.657760   2.392129
     8  C    3.743714   4.912084   5.131790   4.301867   2.913262
     9  C    4.301821   5.339660   5.459520   4.598183   3.351696
    10  N    5.010964   5.920084   5.964419   5.117772   4.043932
    11  H    1.032056   2.107293   3.343616   3.807908   3.339099
    12  H    2.115355   1.031873   2.112607   3.348439   3.824389
    13  H    3.348191   2.110357   1.032493   2.107843   3.350435
    14  H    3.808045   3.346024   2.105633   1.032181   2.106804
    15  H    3.341061   3.824101   3.347899   2.106301   1.031604
    16  H    2.531387   3.919526   4.679901   4.416339   3.257333
    17  H    4.449601   5.721322   6.073285   5.308953   3.917950
    18  H    4.065803   5.060337   5.027368   3.998223   2.648415
                    6          7          8          9         10
     6  C    0.000000
     7  N    1.343159   0.000000
     8  C    2.486123   1.475979   0.000000
     9  C    3.135001   2.445697   1.470664   0.000000
    10  N    3.963032   3.459434   2.609538   1.139086   0.000000
    11  H    2.107663   2.580794   4.037395   4.636938   5.357267
    12  H    3.366738   4.479914   5.816112   6.229131   6.771307
    13  H    3.836910   5.179757   6.140585   6.412587   6.845070
    14  H    3.351977   4.493039   4.907610   5.100978   5.520850
    15  H    2.106941   2.625324   2.587883   2.975812   3.669356
    16  H    2.005356   0.984697   2.126282   3.098830   4.076680
    17  H    3.327642   2.083091   1.069921   2.078561   3.122593
    18  H    2.692062   2.072063   1.070367   2.067893   3.101875
                   11         12         13         14         15
    11  H    0.000000
    12  H    2.426563   0.000000
    13  H    4.200525   2.432633   0.000000
    14  H    4.840085   4.202229   2.422460   0.000000
    15  H    4.195812   4.855966   4.199902   2.419741   0.000000
    16  H    2.340646   4.586614   5.696766   5.319205   3.584104
    17  H    4.542708   6.562716   7.095006   5.933828   3.595623
    18  H    4.547577   6.034003   5.987402   4.438043   2.028502
                   16         17         18
    16  H    0.000000
    17  H    2.297656   0.000000
    18  H    2.852364   1.767743   0.000000
 Stoichiometry    C8H8N2
 Framework group  C1[X(C8H8N2)]
 Deg. of freedom    48
 Full point group                 C1      NOp   1
 Largest Abelian subgroup         C1      NOp   1
 Largest concise Abelian subgroup C1      NOp   1
                         Standard orientation:                         
 ---------------------------------------------------------------------
 Center     Atomic      Atomic             Coordinates (Angstroms)
 Number     Number       Type             X           Y           Z
 ---------------------------------------------------------------------
      1          6           0        1.290110    1.227154    0.396099
      2          6           0        2.535163    0.626270    0.605235
      3          6           0        2.741379   -0.686892    0.182750
      4          6           0        1.706932   -1.390570   -0.428068
      5          6           0        0.468012   -0.785479   -0.632547
      6          6           0        0.244339    0.526493   -0.213914
      7          7           0       -0.935825    1.138182   -0.406598
      8          6           0       -2.178443    0.425526   -0.762316
      9          6           0       -2.705809   -0.365630    0.359650
     10          7           0       -3.125803   -0.997230    1.209475
     11          1           0        1.139980    2.202890    0.697000
     12          1           0        3.294500    1.149914    1.067798
     13          1           0        3.660140   -1.136728    0.322628
     14          1           0        1.858162   -2.365444   -0.731624
     15          1           0       -0.288887   -1.310853   -1.096543
     16          1           0       -0.973929    2.116810   -0.304299
     17          1           0       -2.915840    1.143895   -1.053727
     18          1           0       -1.952823   -0.248388   -1.562705
 ---------------------------------------------------------------------
 Rotational constants (GHZ):      2.9497096      0.8223021      0.7415769
 Standard basis: 6-31G(d) (6D, 7F)
 There are   166 symmetry adapted basis functions of A   symmetry.
 Integral buffers will be    131072 words long.
 Raffenetti 1 integral format.
 Two-electron integral symmetry is turned on.
   166 basis functions,   312 primitive gaussians,   166 cartesian basis functions
    35 alpha electrons       35 beta electrons
       nuclear repulsion energy       462.6491867768 Hartrees.
 NAtoms=   18 NActive=   18 NUniq=   18 SFac= 7.50D-01 NAtFMM=   80 NAOKFM=F Big=F
 One-electron integrals computed using PRISM.
 NBasis=   166 RedAO= T  NBF=   166
 NBsUse=   166 1.00D-06 NBFU=   166
 Harris functional with IExCor=  205 diagonalized for initial guess.
 ExpMin= 1.61D-01 ExpMax= 4.17D+03 ExpMxC= 6.27D+02 IAcc=1 IRadAn=         1 AccDes= 0.00D+00
 HarFok:  IExCor=  205 AccDes= 0.00D+00 IRadAn=         1 IDoV= 1
 ScaDFX=  1.000000  1.000000  1.000000  1.000000
 FoFCou: FMM=F IPFlag=           0 FMFlag=      100000 FMFlg1=           0
         NFxFlg=           0 DoJE=T BraDBF=F KetDBF=T FulRan=T
         Omega=  0.000000  0.000000  1.000000  0.000000  0.000000 ICntrl=     500 IOpCl=  0
         NMat0=    1 NMatS0=    1 NMatT0=    0 NMatD0=    1 NMtDS0=    0 NMtDT0=    0
         I1Cent=           4 NGrid=           0.
 Petite list used in FoFCou.
 Initial guess orbital symmetries:
       Occupied  (A) (A) (A) (A) (A) (A) (A) (A) (A) (A) (A) (A)
                 (A) (A) (A) (A) (A) (A) (A) (A) (A) (A) (A) (A)
                 (A) (A) (A) (A) (A) (A) (A) (A) (A) (A) (A)
       Virtual   (A) (A) (A) (A) (A) (A) (A) (A) (A) (A) (A) (A)
                 (A) (A) (A) (A) (A) (A) (A) (A) (A) (A) (A) (A)
                 (A) (A) (A) (A) (A) (A) (A) (A) (A) (A) (A) (A)
                 (A) (A) (A) (A) (A) (A) (A) (A) (A) (A) (A) (A)
                 (A) (A) (A) (A) (A) (A) (A) (A) (A) (A) (A) (A)
                 (A) (A) (A) (A) (A) (A) (A) (A) (A) (A) (A) (A)
                 (A) (A) (A) (A) (A) (A) (A) (A) (A) (A) (A) (A)
                 (A) (A) (A) (A) (A) (A) (A) (A) (A) (A) (A) (A)
                 (A) (A) (A) (A) (A) (A) (A) (A) (A) (A) (A) (A)
                 (A) (A) (A) (A) (A) (A) (A) (A) (A) (A) (A) (A)
                 (A) (A) (A) (A) (A) (A) (A) (A) (A) (A) (A)
 The electronic state of the initial guess is 1-A.
 Requested convergence on RMS density matrix=1.00D-08 within 128 cycles.
 Requested convergence on MAX density matrix=1.00D-06.
 Requested convergence on             energy=1.00D-06.
 No special actions if energy rises.
 Keep R1 ints in memory in canonical form, NReq=98504973.
 SCF Done:  E(RHF) =  -416.470733807     A.U. after   14 cycles
             Convg  =    0.9992D-08             -V/T =  2.0004

 **********************************************************************

            Population analysis using the SCF density.

 **********************************************************************

 Orbital symmetries:
 BldTbl:  Degeneracy threshold= 1.00D-02
       Occupied  (A) (A) (A) (A) (A) (A) (A) (A) (A) (A) (A) (A)
                 (A) (A) (A) (A) (A) (A) (A) (A) (A) (A) (A) (A)
                 (A) (A) (A) (A) (A) (A) (A) (A) (A) (A) (A)
       Virtual   (A) (A) (A) (A) (A) (A) (A) (A) (A) (A) (A) (A)
                 (A) (A) (A) (A) (A) (A) (A) (A) (A) (A) (A) (A)
                 (A) (A) (A) (A) (A) (A) (A) (A) (A) (A) (A) (A)
                 (A) (A) (A) (A) (A) (A) (A) (A) (A) (A) (A) (A)
                 (A) (A) (A) (A) (A) (A) (A) (A) (A) (A) (A) (A)
                 (A) (A) (A) (A) (A) (A) (A) (A) (A) (A) (A) (A)
                 (A) (A) (A) (A) (A) (A) (A) (A) (A) (A) (A) (A)
                 (A) (A) (A) (A) (A) (A) (A) (A) (A) (A) (A) (A)
                 (A) (A) (A) (A) (A) (A) (A) (A) (A) (A) (A) (A)
                 (A) (A) (A) (A) (A) (A) (A) (A) (A) (A) (A) (A)
                 (A) (A) (A) (A) (A) (A) (A) (A) (A) (A) (A)
 The electronic state is 1-A.
 Alpha  occ. eigenvalues --  -15.59004 -15.57669 -11.32685 -11.28133 -11.27462
 Alpha  occ. eigenvalues --  -11.23158 -11.23040 -11.21910 -11.21860 -11.21186
 Alpha  occ. eigenvalues --   -1.27837  -1.22507  -1.13553  -1.04261  -1.01634
 Alpha  occ. eigenvalues --   -0.97084  -0.84765  -0.82258  -0.74459  -0.71890
 Alpha  occ. eigenvalues --   -0.69737  -0.66938  -0.65043  -0.60301  -0.60101
 Alpha  occ. eigenvalues --   -0.59206  -0.55798  -0.53021  -0.51397  -0.49936
 Alpha  occ. eigenvalues --   -0.47034  -0.46729  -0.44015  -0.33350  -0.28741
 Alpha virt. eigenvalues --    0.13874   0.16361   0.18615   0.21186   0.23019
 Alpha virt. eigenvalues --    0.24541   0.26202   0.30164   0.31079   0.33158
 Alpha virt. eigenvalues --    0.34927   0.35606   0.37785   0.39826   0.41074
 Alpha virt. eigenvalues --    0.44958   0.46239   0.48179   0.51097   0.53828
 Alpha virt. eigenvalues --    0.57548   0.65722   0.70973   0.73300   0.75016
 Alpha virt. eigenvalues --    0.75579   0.78872   0.78963   0.79866   0.80575
 Alpha virt. eigenvalues --    0.82085   0.82920   0.83640   0.84678   0.84921
 Alpha virt. eigenvalues --    0.87784   0.88555   0.89521   0.92284   0.93367
 Alpha virt. eigenvalues --    0.97064   1.01063   1.06123   1.07085   1.09372
 Alpha virt. eigenvalues --    1.10163   1.12620   1.14290   1.14667   1.15294
 Alpha virt. eigenvalues --    1.17078   1.19304   1.21157   1.21376   1.22339
 Alpha virt. eigenvalues --    1.23356   1.24134   1.30292   1.30571   1.33716
 Alpha virt. eigenvalues --    1.35676   1.42504   1.44311   1.46285   1.51573
 Alpha virt. eigenvalues --    1.54104   1.63108   1.63793   1.69189   1.70300
 Alpha virt. eigenvalues --    1.72127   1.75546   1.77405   1.78006   1.79134
 Alpha virt. eigenvalues --    1.79282   1.81120   1.84399   1.90972   2.02042
 Alpha virt. eigenvalues --    2.04453   2.10119   2.11891   2.16678   2.19885
 Alpha virt. eigenvalues --    2.24218   2.24995   2.26129   2.30610   2.35040
 Alpha virt. eigenvalues --    2.37174   2.38005   2.40688   2.41230   2.41599
 Alpha virt. eigenvalues --    2.45962   2.47136   2.49503   2.51321   2.55730
 Alpha virt. eigenvalues --    2.61254   2.63788   2.64830   2.77256   2.80758
 Alpha virt. eigenvalues --    2.90337   2.91385   2.95786   2.99335   3.02291
 Alpha virt. eigenvalues --    3.10207   3.11354   3.11991   3.13152   3.14747
 Alpha virt. eigenvalues --    3.18505   3.25411   3.29353   3.57697   3.62250
 Alpha virt. eigenvalues --    3.84910   4.40661   4.47155   4.53250   4.55663
 Alpha virt. eigenvalues --    4.58506   4.64323   4.77120   4.81045   5.06969
 Alpha virt. eigenvalues --    5.15780
          Condensed to atoms (all electrons):
              1          2          3          4          5          6
     1  C    4.974909   0.559551  -0.056366  -0.034520  -0.041386   0.577497
     2  C    0.559551   4.827722   0.556982  -0.042135  -0.032655  -0.034038
     3  C   -0.056366   0.556982   4.919219   0.565448  -0.055776  -0.027224
     4  C   -0.034520  -0.042135   0.565448   4.823235   0.552146  -0.032053
     5  C   -0.041386  -0.032655  -0.055776   0.552146   4.980070   0.578796
     6  C    0.577497  -0.034038  -0.027224  -0.032053   0.578796   4.419974
     7  N   -0.067941   0.003065   0.000417   0.003730  -0.066803   0.241319
     8  C    0.002313  -0.000063  -0.000001  -0.000169  -0.002828  -0.035294
     9  C    0.000008  -0.000007  -0.000004   0.000011   0.000362  -0.000489
    10  N    0.000003   0.000001   0.000000  -0.000009  -0.000532  -0.000276
    11  H    0.384118  -0.026959   0.002960   0.000137   0.003355  -0.042221
    12  H   -0.030648   0.386987  -0.031204   0.002815   0.000325   0.001931
    13  H    0.003025  -0.033652   0.389633  -0.033125   0.003129   0.000390
    14  H    0.000438   0.002764  -0.031109   0.387366  -0.031268   0.001813
    15  H    0.003160   0.000174   0.002758  -0.025745   0.384433  -0.039159
    16  H   -0.002487   0.000050   0.000007  -0.000104   0.003068  -0.023232
    17  H   -0.000047   0.000001   0.000000   0.000003   0.000390   0.001822
    18  H    0.000097   0.000003  -0.000008  -0.000120  -0.002185   0.003182
              7          8          9         10         11         12
     1  C   -0.067941   0.002313   0.000008   0.000003   0.384118  -0.030648
     2  C    0.003065  -0.000063  -0.000007   0.000001  -0.026959   0.386987
     3  C    0.000417  -0.000001  -0.000004   0.000000   0.002960  -0.031204
     4  C    0.003730  -0.000169   0.000011  -0.000009   0.000137   0.002815
     5  C   -0.066803  -0.002828   0.000362  -0.000532   0.003355   0.000325
     6  C    0.241319  -0.035294  -0.000489  -0.000276  -0.042221   0.001931
     7  N    7.287147   0.274325  -0.073623  -0.001845  -0.002872  -0.000100
     8  C    0.274325   4.912630   0.248338  -0.055076  -0.000060   0.000002
     9  C   -0.073623   0.248338   4.660363   0.957250  -0.000012   0.000000
    10  N   -0.001845  -0.055076   0.957250   6.549079   0.000000   0.000000
    11  H   -0.002872  -0.000060  -0.000012   0.000000   0.492246  -0.001911
    12  H   -0.000100   0.000002   0.000000   0.000000  -0.001911   0.470381
    13  H    0.000003   0.000000   0.000000   0.000000  -0.000135  -0.001669
    14  H   -0.000107   0.000003  -0.000005   0.000000   0.000013  -0.000134
    15  H   -0.005140   0.001514  -0.000708   0.000052  -0.000141   0.000012
    16  H    0.340142  -0.025087   0.001688   0.000003   0.004289  -0.000009
    17  H   -0.031269   0.410724  -0.042495  -0.000507  -0.000001   0.000000
    18  H   -0.050422   0.422537  -0.066991  -0.000825   0.000007   0.000000
             13         14         15         16         17         18
     1  C    0.003025   0.000438   0.003160  -0.002487  -0.000047   0.000097
     2  C   -0.033652   0.002764   0.000174   0.000050   0.000001   0.000003
     3  C    0.389633  -0.031109   0.002758   0.000007   0.000000  -0.000008
     4  C   -0.033125   0.387366  -0.025745  -0.000104   0.000003  -0.000120
     5  C    0.003129  -0.031268   0.384433   0.003068   0.000390  -0.002185
     6  C    0.000390   0.001813  -0.039159  -0.023232   0.001822   0.003182
     7  N    0.000003  -0.000107  -0.005140   0.340142  -0.031269  -0.050422
     8  C    0.000000   0.000003   0.001514  -0.025087   0.410724   0.422537
     9  C    0.000000  -0.000005  -0.000708   0.001688  -0.042495  -0.066991
    10  N    0.000000   0.000000   0.000052   0.000003  -0.000507  -0.000825
    11  H   -0.000135   0.000013  -0.000141   0.004289  -0.000001   0.000007
    12  H   -0.001669  -0.000134   0.000012  -0.000009   0.000000   0.000000
    13  H    0.482397  -0.001795  -0.000134   0.000000   0.000000   0.000000
    14  H   -0.001795   0.470828  -0.001720   0.000003   0.000000   0.000006
    15  H   -0.000134  -0.001720   0.491751  -0.000164   0.000197  -0.001847
    16  H    0.000000   0.000003  -0.000164   0.313530  -0.002447   0.001911
    17  H    0.000000   0.000000   0.000197  -0.002447   0.438256  -0.015911
    18  H    0.000000   0.000006  -0.001847   0.001911  -0.015911   0.474263
 Mulliken atomic charges:
              1
     1  C   -0.271725
     2  C   -0.167789
     3  C   -0.235734
     4  C   -0.166914
     5  C   -0.272643
     6  C    0.407262
     7  N   -0.850025
     8  C   -0.153807
     9  C    0.316312
    10  N   -0.447319
    11  H    0.187187
    12  H    0.203222
    13  H    0.191933
    14  H    0.202906
    15  H    0.190707
    16  H    0.388840
    17  H    0.241284
    18  H    0.236303
 Sum of Mulliken atomic charges =   0.00000
 Mulliken charges with hydrogens summed into heavy atoms:
              1
     1  C   -0.084538
     2  C    0.035433
     3  C   -0.043801
     4  C    0.035992
     5  C   -0.081936
     6  C    0.407262
     7  N   -0.461186
     8  C    0.323779
     9  C    0.316312
    10  N   -0.447319
 Sum of Mulliken charges with hydrogens summed into heavy atoms =   0.00000
 DipInt: DoE/N= T F RetVal/Mat= T F Init=T NMatP=  1 IDeriv=0 Min/MaxMlt=  0  4
 Entering OneElI...
 OneElI was handed  1048502823 working-precision words.
 Multipole integrals L=0 to 4 MinM= 0 MaxM= 0.
 Requested accuracy = 0.1000D-12
 PrsmSu:  NPrtUS=   1 ThrOK=F IAlg=1
 PRISM was handed  1048364650 working-precision words and  1472 shell-pairs
 IPart=  0 NShTot=        1472 NBatch=          45 AvBLen=        32.7
 Electronic moments (au):
        -70.00000000          0.23679509          1.09115954         -1.16536418
      -1123.57349943       -288.40401073       -153.47558181         -6.15542158
          8.67313197          3.43040272        557.93536565          5.80874839
        -37.49614758       -187.97230968        587.33504586       -709.22873861
        239.87676101         61.53377281          2.49069911       -416.83048807
     -32053.91159204      -2731.88106592       -955.31974591      -1746.66519420
       1471.63717749        292.22842512       -180.27667307        261.61303787
        104.33156371      -3986.06282787      -3146.74294889       -647.93955221
        952.80494029        211.75178741       -405.73284373
 Electronic spatial extent (au):  <R**2>=           1565.4531
 DipInt: DoE/N= F T RetVal/Mat= T F Init=T NMatP=  1 IDeriv=0 Min/MaxMlt=  0  4
 Nuclear    moments (au):
         70.00000000          0.00000000          0.00000000          0.00000000
       1078.71509038        249.03441626        106.72831144          0.00000000
          0.00000000          0.00000000       -513.63815652         14.98322303
         27.61657678        194.09397875       -555.17714139        677.92826101
       -237.14602916        -55.94456854        -10.50113421        413.16500796
      27845.88666236       1824.13014545        381.49504794       1517.06548651
      -1142.79229498       -380.58823732        213.61011757       -200.81526186
        -85.76019896       3139.41781276       2288.13663231        376.89017465
       -872.10818338       -170.24568410        380.87683800
 Total      moments (au):
          0.00000000          0.23679509          1.09115954         -1.16536418
        -44.85840905        -39.36959448        -46.74727037         -6.15542158
          8.67313197          3.43040272         44.29720913         20.79197143
         -9.87957080          6.12166907         32.15790447        -31.30047760
          2.73073185          5.58920427         -8.01043510         -3.66548011
      -4208.02492968       -907.75092047       -573.82469796       -229.59970768
        328.84488251        -88.35981219         33.33344450         60.79777601
         18.57136475       -846.64501511       -858.60631658       -271.04937756
         80.69675691         41.50610331        -24.85600573
 Traceless Quadrup. (au):
         -1.19998442          4.28883016         -3.08884574         -6.15542158
          8.67313197          3.43040272
 Charge=              0.0000 electrons
 Dipole moment (field-independent basis, Debye):
    X=              0.6019    Y=              2.7735    Z=             -2.9621  Tot=              4.1022
 Quadrupole moment (field-independent basis, Debye-Ang):
   XX=            -60.3361   YY=            -52.9535   ZZ=            -62.8767
   XY=             -8.2793   XZ=             11.6657   YZ=              4.6140
 Traceless Quadrupole moment (field-independent basis, Debye-Ang):
   XX=             -1.6140   YY=              5.7686   ZZ=             -4.1546
   XY=             -8.2793   XZ=             11.6657   YZ=              4.6140
 Octapole moment (field-independent basis, Debye-Ang**2):
  XXX=             31.5290  YYY=             14.7989  ZZZ=             -7.0319  XYY=              4.3572
  XXY=             22.8888  XXZ=            -22.2785  XZZ=              1.9436  YZZ=              3.9782
  YYZ=             -5.7015  XYZ=             -2.6089
 Hexadecapole moment (field-independent basis, Debye-Ang**3):
 XXXX=          -1584.9439 YYYY=           -341.9025 ZZZZ=           -216.1299 XXXY=            -86.4783
 XXXZ=            123.8587 YYYX=            -33.2805 YYYZ=             12.5550 ZZZX=             22.8994
 ZZZY=              6.9949 XXYY=           -318.8871 XXZZ=           -323.3923 YYZZ=           -102.0902
 XXYZ=             30.3943 YYXZ=             15.6332 ZZXY=             -9.3620
 N-N= 4.626491867768D+02 E-N=-1.896771713028D+03  KE= 4.162859643958D+02
 Entering OneElI...
 OneElI was handed  1048447095 working-precision words.
 Calculate electrostatic properties
    NBasis =   166  MinDer = 0  MaxDer = 0
    NGrid  =    18  NMatD  =   1
 Requested accuracy = 0.1000D-12
 PrsmSu:  NPrtUS=  22 ThrOK=T IAlg=1
 PRISM was handed    47604644 working-precision words and  1399 shell-pairs
 PRISM was handed    47604644 working-precision words and  1399 shell-pairs
 PRISM was handed    47604644 working-precision words and  1399 shell-pairs
 PRISM was handed    47604644 working-precision words and  1399 shell-pairs
 PRISM was handed    47604644 working-precision words and  1399 shell-pairs
 PRISM was handed    47604644 working-precision words and  1399 shell-pairs
 PRISM was handed    47604644 working-precision words and  1399 shell-pairs
 PRISM was handed    47604644 working-precision words and  1399 shell-pairs
 PRISM was handed    47604644 working-precision words and  1399 shell-pairs
 PRISM was handed    47604644 working-precision words and  1399 shell-pairs
 PRISM was handed    47604644 working-precision words and  1399 shell-pairs
 PRISM was handed    47604644 working-precision words and  1399 shell-pairs
 PRISM was handed    47604644 working-precision words and  1399 shell-pairs
 PRISM was handed    47604644 working-precision words and  1399 shell-pairs
 PRISM was handed    47604644 working-precision words and  1399 shell-pairs
 PRISM was handed    47604644 working-precision words and  1399 shell-pairs
 PRISM was handed    47604644 working-precision words and  1399 shell-pairs
 PRISM was handed    47604644 working-precision words and  1399 shell-pairs
 PRISM was handed    47604644 working-precision words and  1399 shell-pairs
 PRISM was handed    47604644 working-precision words and  1399 shell-pairs
 PRISM was handed    47604644 working-precision words and  1399 shell-pairs
 PRISM was handed    47604644 working-precision words and  1399 shell-pairs
 IPart= 11 NShTot=        1080 NBatch=          60 AvBLen=        18.0
 IPart= 10 NShTot=        1098 NBatch=          61 AvBLen=        18.0
 IPart= 13 NShTot=        1008 NBatch=          56 AvBLen=        18.0
 IPart=  0 NShTot=        1584 NBatch=          88 AvBLen=        18.0
 IPart= 12 NShTot=        1026 NBatch=          57 AvBLen=        18.0
 IPart=  1 NShTot=        1512 NBatch=          84 AvBLen=        18.0
 IPart= 16 NShTot=         918 NBatch=          51 AvBLen=        18.0
 IPart=  6 NShTot=        1314 NBatch=          73 AvBLen=        18.0
 IPart=  2 NShTot=        1476 NBatch=          82 AvBLen=        18.0
 IPart= 18 NShTot=         900 NBatch=          50 AvBLen=        18.0
 IPart= 17 NShTot=         918 NBatch=          51 AvBLen=        18.0
 IPart=  5 NShTot=        1368 NBatch=          76 AvBLen=        18.0
 IPart=  4 NShTot=        1404 NBatch=          78 AvBLen=        18.0
 IPart= 14 NShTot=         972 NBatch=          54 AvBLen=        18.0
 IPart= 15 NShTot=         936 NBatch=          52 AvBLen=        18.0
 IPart=  3 NShTot=        1422 NBatch=          79 AvBLen=        18.0
 IPart=  9 NShTot=        1152 NBatch=          64 AvBLen=        18.0
 IPart= 19 NShTot=         882 NBatch=          49 AvBLen=        18.0
 IPart= 21 NShTot=         882 NBatch=          49 AvBLen=        18.0
 IPart=  7 NShTot=        1278 NBatch=          71 AvBLen=        18.0
 IPart=  8 NShTot=        1170 NBatch=          65 AvBLen=        18.0
 IPart= 20 NShTot=         882 NBatch=          49 AvBLen=        18.0
 --------------------------------------------------------
       Center         ----      EFG at Nuclei      ----
                      3XX-RR        3YY-RR        3ZZ-RR
 --------------------------------------------------------
     1   Atom        0.096947      0.059536     -0.156483
     2   Atom        0.129971      0.149841     -0.279812
     3   Atom        0.091213      0.084944     -0.176157
     4   Atom        0.150829      0.126997     -0.277826
     5   Atom        0.089744      0.064246     -0.153990
     6   Atom        0.016632      0.217236     -0.233868
     7   Atom       -0.643788     -0.574283      1.218071
     8   Atom       -0.085228      0.068836      0.016392
     9   Atom       -0.106105     -0.024660      0.130765
    10   Atom       -0.290338     -0.023997      0.314336
    11   Atom        0.182934     -0.354492      0.171558
    12   Atom       -0.133748      0.042036      0.091712
    13   Atom       -0.291316      0.081837      0.209479
    14   Atom        0.189105     -0.351189      0.162084
    15   Atom       -0.141778      0.040423      0.101354
    16   Atom        0.186623     -0.462333      0.275710
    17   Atom       -0.073181     -0.060527      0.133707
    18   Atom        0.141096     -0.028580     -0.112516
 --------------------------------------------------------
                        XY            XZ            YZ
 --------------------------------------------------------
     1   Atom       -0.045658      0.061751      0.070684
     2   Atom       -0.068432      0.160982      0.182918
     3   Atom       -0.038050      0.106695      0.116983
     4   Atom       -0.047660      0.170805      0.180399
     5   Atom       -0.032351      0.086461      0.052127
     6   Atom        0.065054      0.148727      0.217847
     7   Atom       -0.068027     -0.399075     -0.202889
     8   Atom       -0.218327     -0.004603      0.097264
     9   Atom        0.123153     -0.149461     -0.241046
    10   Atom        0.261527     -0.406327     -0.562036
    11   Atom        0.092066      0.014592     -0.180893
    12   Atom       -0.231203     -0.210491     -0.147619
    13   Atom        0.243338     -0.083251      0.027407
    14   Atom        0.087693      0.021244     -0.179244
    15   Atom       -0.223357     -0.215324     -0.153330
    16   Atom        0.034410     -0.019102     -0.079693
    17   Atom        0.222590     -0.094748      0.096909
    18   Atom        0.058678      0.075570     -0.231674
 --------------------------------------------------------


 ---------------------------------------------------------------------------------
              Nuclear Quadrupole in Principal Axis System
 ---------------------------------------------------------------------------------

       Atom             a.u.   MegaHertz   Gauss  10(-4) cm-1        Axes

              Baa    -0.1955   -26.240    -9.363    -8.753 -0.2416 -0.2991  0.9231
     1 C(13)  Bbb     0.0672     9.023     3.220     3.010  0.4516  0.8074  0.3797
              Bcc     0.1283    17.216     6.143     5.743  0.8589 -0.5086  0.0600
 
              Baa    -0.4043   -54.251   -19.358   -18.096 -0.3109 -0.3323  0.8905
     2 C(13)  Bbb     0.1850    24.828     8.859     8.282  0.9207  0.1272  0.3689
              Bcc     0.2193    29.423    10.499     9.814 -0.2358  0.9345  0.2665
 
              Baa    -0.2577   -34.576   -12.338   -11.533 -0.3088 -0.3379  0.8891
     3 C(13)  Bbb     0.1262    16.940     6.044     5.650  0.7754 -0.6308  0.0296
              Bcc     0.1314    17.637     6.293     5.883  0.5508  0.6985  0.4567
 
              Baa    -0.4029   -54.066   -19.292   -18.034 -0.3040 -0.3314  0.8932
     4 C(13)  Bbb     0.1849    24.817     8.855     8.278 -0.5432  0.8305  0.1232
              Bcc     0.2180    29.249    10.437     9.756  0.7826  0.4477  0.4325
 
              Baa    -0.1952   -26.197    -9.348    -8.738 -0.3062 -0.2241  0.9252
     5 C(13)  Bbb     0.0731     9.804     3.498     3.270  0.2330  0.9247  0.3010
              Bcc     0.1222    16.393     5.849     5.468  0.9230 -0.3078  0.2309
 
              Baa    -0.3582   -48.072   -17.153   -16.035 -0.3045 -0.3069  0.9017
     6 C(13)  Bbb     0.0099     1.327     0.474     0.443  0.8869 -0.4367  0.1508
              Bcc     0.3483    46.745    16.680    15.592  0.3475  0.8456  0.4052
 
              Baa    -0.7851   -30.280   -10.805   -10.100  0.8479  0.4833  0.2179
     7 N(14)  Bbb    -0.5331   -20.559    -7.336    -6.858 -0.4929  0.8700 -0.0115
              Bcc     1.3182    50.838    18.140    16.958 -0.1951 -0.0976  0.9759
 
              Baa    -0.2506   -33.626   -11.999   -11.217  0.7785  0.5939 -0.2029
     8 C(13)  Bbb    -0.0019    -0.260    -0.093    -0.087  0.3592 -0.1564  0.9201
              Bcc     0.2525    33.887    12.092    11.303 -0.5147  0.7892  0.3351
 
              Baa    -0.2053   -27.552    -9.831    -9.190 -0.3995  0.8198  0.4103
     9 C(13)  Bbb    -0.1775   -23.815    -8.498    -7.944  0.8397  0.1476  0.5226
              Bcc     0.3828    51.367    18.329    17.134 -0.3679 -0.5533  0.7474
 
              Baa    -0.4981   -19.209    -6.854    -6.407  0.8200  0.1884  0.5405
    10 N(14)  Bbb    -0.4256   -16.416    -5.858    -5.476 -0.4373  0.8155  0.3793
              Bcc     0.9237    35.625    12.712    11.883 -0.3693 -0.5473  0.7511
 
              Baa    -0.4247  -226.602   -80.857   -75.586 -0.1502  0.9451  0.2904
    11 H(1)   Bbb     0.1920   102.464    36.562    34.178  0.9270  0.0325  0.3737
              Bcc     0.2327   124.138    44.295    41.408 -0.3438 -0.3253  0.8809
 
              Baa    -0.4219  -225.101   -80.321   -75.085  0.7353  0.5089  0.4476
    12 H(1)   Bbb     0.2013   107.415    38.328    35.830 -0.6010  0.7949  0.0835
              Bcc     0.2206   117.685    41.993    39.256 -0.3133 -0.3304  0.8903
 
              Baa    -0.4233  -225.842   -80.586   -75.333  0.8896 -0.4360  0.1359
    13 H(1)   Bbb     0.1961   104.615    37.329    34.896  0.3440  0.8356  0.4282
              Bcc     0.2272   121.227    43.257    40.437 -0.3003 -0.3342  0.8934
 
              Baa    -0.4209  -224.559   -80.128   -74.905 -0.1460  0.9441  0.2956
    14 H(1)   Bbb     0.2004   106.928    38.154    35.667  0.9390  0.0382  0.3418
              Bcc     0.2205   117.631    41.974    39.238 -0.3114 -0.3275  0.8921
 
              Baa    -0.4247  -226.578   -80.849   -75.578  0.7387  0.5028  0.4489
    15 H(1)   Bbb     0.1896   101.185    36.105    33.752 -0.6089  0.7833  0.1247
              Bcc     0.2350   125.393    44.743    41.827 -0.2890 -0.3655  0.8848
 
              Baa    -0.4724  -252.058   -89.941   -84.077 -0.0488  0.9933  0.1046
    16 H(1)   Bbb     0.1831    97.711    34.866    32.593  0.9747  0.0245  0.2222
              Bcc     0.2893   154.346    55.075    51.484 -0.2182 -0.1128  0.9694
 
              Baa    -0.3292  -175.641   -62.673   -58.588  0.6868 -0.6704  0.2809
    17 H(1)   Bbb     0.1552    82.820    29.552    27.626  0.7232  0.6689 -0.1719
              Bcc     0.1740    92.821    33.121    30.962 -0.0727  0.3212  0.9442
 
              Baa    -0.3256  -173.716   -61.986   -57.945 -0.2007  0.6269  0.7528
    18 H(1)   Bbb     0.1588    84.755    30.243    28.271  0.8579  0.4835 -0.1739
              Bcc     0.1667    88.961    31.744    29.674  0.4731 -0.6109  0.6348
 

 ---------------------------------------------------------------------------------

 No NMR shielding tensors so no spin-rotation constants.
 Leave Link  601 at Fri Sep 16 13:09:10 2022, MaxMem= 1048576000 cpu:       4.9
 Merz-Kollman atomic radii used.
 Atom Element Radius
    1     6    1.50
    2     6    1.50
    3     6    1.50
    4     6    1.50
    5     6    1.50
    6     6    1.50
    7     7    1.50
    8     6    1.50
    9     6    1.50
   10     7    1.50
   11     1    1.20
   12     1    1.20
   13     1    1.20
   14     1    1.20
   15     1    1.20
   16     1    1.20
   17     1    1.20
   18     1    1.20
 Generate VDW surfaces: Layer= 4 Dens= 6 Start= 1.400 Inc= 0.200

 **********************************************************************

            Electrostatic Properties Using The SCF Density

 **********************************************************************

       Atomic Center    1 is at   1.290110  1.227154  0.396099
       Atomic Center    2 is at   2.535163  0.626270  0.605235
       Atomic Center    3 is at   2.741379 -0.686892  0.182750
       Atomic Center    4 is at   1.706932 -1.390570 -0.428068
       Atomic Center    5 is at   0.468012 -0.785479 -0.632547
       Atomic Center    6 is at   0.244339  0.526493 -0.213914
       Atomic Center    7 is at  -0.935825  1.138182 -0.406598
       Atomic Center    8 is at  -2.178443  0.425526 -0.762316
       Atomic Center    9 is at  -2.705809 -0.365630  0.359650
       Atomic Center   10 is at  -3.125803 -0.997230  1.209475
       Atomic Center   11 is at   1.139980  2.202890  0.697000
       Atomic Center   12 is at   3.294500  1.149914  1.067798
       Atomic Center   13 is at   3.660140 -1.136728  0.322628
       Atomic Center   14 is at   1.858162 -2.365444 -0.731624
       Atomic Center   15 is at  -0.288887 -1.310853 -1.096543
       Atomic Center   16 is at  -0.973929  2.116810 -0.304299
       Atomic Center   17 is at  -2.915840  1.143895 -1.053727
       Atomic Center   18 is at  -1.952823 -0.248388 -1.562705
      ESP Fit Center   19 is at   1.290110  1.227154  2.496099
      ESP Fit Center   20 is at   1.699800  1.227154  2.455748
      ESP Fit Center   21 is at   1.494955  1.581956  2.455748
      ESP Fit Center   22 is at   1.085265  1.581956  2.455748
      ESP Fit Center   23 is at   0.880421  1.227154  2.455748
      ESP Fit Center   24 is at   1.085265  0.872353  2.455748
      ESP Fit Center   25 is at   1.494955  0.872353  2.455748
      ESP Fit Center   26 is at   1.691928  1.923123  2.336246
      ESP Fit Center   27 is at   0.888293  1.923123  2.336246
      ESP Fit Center   28 is at   0.594142  1.628972  2.336246
      ESP Fit Center   29 is at   0.486475  1.227154  2.336246
      ESP Fit Center   30 is at   0.594142  0.825337  2.336246
      ESP Fit Center   31 is at   0.888293  0.531186  2.336246
      ESP Fit Center   32 is at   1.290110  0.423519  2.336246
      ESP Fit Center   33 is at   2.152310  2.013153  2.142185
      ESP Fit Center   34 is at   0.298164  1.841341  2.142185
      ESP Fit Center   35 is at   0.143278  1.441534  2.142185
      ESP Fit Center   36 is at   0.143278  1.012774  2.142185
      ESP Fit Center   37 is at   0.298164  0.612967  2.142185
      ESP Fit Center   38 is at   0.587018  0.296110  2.142185
      ESP Fit Center   39 is at   0.970828  0.104995  2.142185
      ESP Fit Center   40 is at  -0.134664  1.645506  1.881023
      ESP Fit Center   41 is at  -0.194814  1.227154  1.881023
      ESP Fit Center   42 is at  -0.134664  0.808803  1.881023
      ESP Fit Center   43 is at   0.040913  0.424344  1.881023
      ESP Fit Center   44 is at   0.317692  0.104923  1.881023
      ESP Fit Center   45 is at   0.673250 -0.123580  1.881023
      ESP Fit Center   46 is at   1.078784 -0.242656  1.881023
      ESP Fit Center   47 is at  -0.405238  1.645020  1.562796
      ESP Fit Center   48 is at   2.775035  2.712079  0.396099
      ESP Fit Center   49 is at   2.709140  2.719973 -0.013591
      ESP Fit Center   50 is at   2.546135  2.705861 -0.407537
      ESP Fit Center   51 is at   2.198892  2.941298 -0.407537
      ESP Fit Center   52 is at   2.597075  2.385024 -0.770599
      ESP Fit Center   53 is at   2.282000  2.664155 -0.770599
      ESP Fit Center   54 is at   1.909281  2.859773 -0.770599
      ESP Fit Center   55 is at   1.500578  2.960510 -0.770599
      ESP Fit Center   56 is at   2.539308  2.029965 -1.088826
      ESP Fit Center   57 is at   2.262529  2.349385 -1.088826
      ESP Fit Center   58 is at   1.906970  2.577889 -1.088826
      ESP Fit Center   59 is at   1.501437  2.696964 -1.088826
      ESP Fit Center   60 is at   1.078784  2.696964 -1.088826
      ESP Fit Center   61 is at   0.673250  2.577889 -1.088826
      ESP Fit Center   62 is at   2.378023  1.648614 -1.349988
      ESP Fit Center   63 is at   2.152310  2.013153 -1.349988
      ESP Fit Center   64 is at   1.810152  2.271539 -1.349988
      ESP Fit Center   65 is at   1.397760  2.388875 -1.349988
      ESP Fit Center   66 is at   0.970828  2.349314 -1.349988
      ESP Fit Center   67 is at   2.093745  1.227154 -1.544048
      ESP Fit Center   68 is at   1.986079  1.628972 -1.544048
      ESP Fit Center   69 is at   1.691928  1.923123 -1.544048
      ESP Fit Center   70 is at   1.290110  2.030790 -1.544048
      ESP Fit Center   71 is at   1.986079  0.825337 -1.544048
      ESP Fit Center   72 is at   1.699800  1.227154 -1.663550
      ESP Fit Center   73 is at   1.494955  1.581956 -1.663550
      ESP Fit Center   74 is at   2.535163  0.626270  2.705235
      ESP Fit Center   75 is at   2.944852  0.626270  2.664885
      ESP Fit Center   76 is at   2.740007  0.981072  2.664885
      ESP Fit Center   77 is at   2.330318  0.981072  2.664885
      ESP Fit Center   78 is at   2.125473  0.626270  2.664885
      ESP Fit Center   79 is at   2.330318  0.271469  2.664885
      ESP Fit Center   80 is at   2.740007  0.271469  2.664885
      ESP Fit Center   81 is at   2.535163  1.429905  2.545382
      ESP Fit Center   82 is at   2.133345  1.322239  2.545382
      ESP Fit Center   83 is at   1.839194  1.028088  2.545382
      ESP Fit Center   84 is at   1.731527  0.626270  2.545382
      ESP Fit Center   85 is at   1.839194  0.224453  2.545382
      ESP Fit Center   86 is at   2.133345 -0.069698  2.545382
      ESP Fit Center   87 is at   2.535163 -0.177365  2.545382
      ESP Fit Center   88 is at   2.936980 -0.069698  2.545382
      ESP Fit Center   89 is at   3.231131  0.224453  2.545382
      ESP Fit Center   90 is at   2.215881  1.748430  2.351322
      ESP Fit Center   91 is at   1.388330  0.411890  2.351322
      ESP Fit Center   92 is at   1.543216  0.012083  2.351322
      ESP Fit Center   93 is at   1.832070 -0.304774  2.351322
      ESP Fit Center   94 is at   2.215881 -0.495889  2.351322
      ESP Fit Center   95 is at   2.642812 -0.535450  2.351322
      ESP Fit Center   96 is at   3.055204 -0.418115  2.351322
      ESP Fit Center   97 is at   3.397362 -0.159729  2.351322
      ESP Fit Center   98 is at   2.323836  2.096080  2.090160
      ESP Fit Center   99 is at   1.285965 -0.176540  2.090160
      ESP Fit Center  100 is at   1.562744 -0.495961  2.090160
      ESP Fit Center  101 is at   3.784360 -0.176540  2.090160
      ESP Fit Center  102 is at   1.228198 -0.531599  1.771933
      ESP Fit Center  103 is at   4.081245 -0.185176  1.771933
      ESP Fit Center  104 is at   2.847051  2.662168  0.195546
      ESP Fit Center  105 is at   4.475310  0.626270 -0.198400
      ESP Fit Center  106 is at   4.429950  1.043345 -0.198400
      ESP Fit Center  107 is at   3.443944  2.340414 -0.198400
      ESP Fit Center  108 is at   3.054207  2.495699 -0.198400
      ESP Fit Center  109 is at   4.281249  0.626270 -0.561462
      ESP Fit Center  110 is at   4.230511  1.044136 -0.561462
      ESP Fit Center  111 is at   4.081245  1.437717 -0.561462
      ESP Fit Center  112 is at   3.842127  1.784140 -0.561462
      ESP Fit Center  113 is at   3.527053  2.063271 -0.561462
      ESP Fit Center  114 is at   3.154333  2.258889 -0.561462
      ESP Fit Center  115 is at   4.020087  0.626270 -0.879689
      ESP Fit Center  116 is at   3.959937  1.044622 -0.879689
      ESP Fit Center  117 is at   3.784360  1.429081 -0.879689
      ESP Fit Center  118 is at   3.507581  1.748501 -0.879689
      ESP Fit Center  119 is at   3.152022  1.977005 -0.879689
      ESP Fit Center  120 is at   2.746489  2.096080 -0.879689
      ESP Fit Center  121 is at   3.623076  1.047730 -1.140851
      ESP Fit Center  122 is at   3.397362  1.412269 -1.140851
      ESP Fit Center  123 is at   3.055204  1.670655 -1.140851
      ESP Fit Center  124 is at   2.642812  1.787991 -1.140851
      ESP Fit Center  125 is at   3.231131  1.028088 -1.334912
      ESP Fit Center  126 is at   2.936980  1.322239 -1.334912
      ESP Fit Center  127 is at   2.535163  1.429905 -1.334912
      ESP Fit Center  128 is at   2.944852  0.626270 -1.454414
      ESP Fit Center  129 is at   2.740007  0.981072 -1.454414
      ESP Fit Center  130 is at   2.330318  0.981072 -1.454414
      ESP Fit Center  131 is at   2.125473  0.626270 -1.454414
      ESP Fit Center  132 is at   2.535163  0.626270 -1.494765
      ESP Fit Center  133 is at   2.741379 -0.686892  2.282750
      ESP Fit Center  134 is at   3.151068 -0.686892  2.242400
      ESP Fit Center  135 is at   2.331689 -0.686892  2.242400
      ESP Fit Center  136 is at   2.536534 -1.041693  2.242400
      ESP Fit Center  137 is at   2.946224 -1.041693  2.242400
      ESP Fit Center  138 is at   3.545014 -0.686892  2.122897
      ESP Fit Center  139 is at   2.045410 -1.088709  2.122897
      ESP Fit Center  140 is at   2.339561 -1.382860  2.122897
      ESP Fit Center  141 is at   2.741379 -1.490527  2.122897
      ESP Fit Center  142 is at   3.143196 -1.382860  2.122897
      ESP Fit Center  143 is at   3.437347 -1.088709  2.122897
      ESP Fit Center  144 is at   3.908076 -0.686892  1.928837
      ESP Fit Center  145 is at   1.594547 -0.901272  1.928837
      ESP Fit Center  146 is at   1.749433 -1.301079  1.928837
      ESP Fit Center  147 is at   2.038286 -1.617936  1.928837
      ESP Fit Center  148 is at   2.422097 -1.809051  1.928837
      ESP Fit Center  149 is at   2.849028 -1.848612  1.928837
      ESP Fit Center  150 is at   3.261421 -1.731276  1.928837
      ESP Fit Center  151 is at   1.256455 -0.686892  1.667675
      ESP Fit Center  152 is at   1.316604 -1.105243  1.667675
      ESP Fit Center  153 is at   1.492181 -1.489702  1.667675
      ESP Fit Center  154 is at   1.768960 -1.809123  1.667675
      ESP Fit Center  155 is at   2.124519 -2.037626  1.667675
      ESP Fit Center  156 is at   2.530052 -2.156702  1.667675
      ESP Fit Center  157 is at   2.952706 -2.156702  1.667675
      ESP Fit Center  158 is at   2.530911 -2.420247  1.349448
      ESP Fit Center  159 is at   2.951846 -2.420247  1.349448
      ESP Fit Center  160 is at   2.846416 -2.624193  0.986386
      ESP Fit Center  161 is at   3.053267 -2.722790  0.592440
      ESP Fit Center  162 is at   4.634109  0.125343 -0.226939
      ESP Fit Center  163 is at   4.502209  0.127755 -0.620885
      ESP Fit Center  164 is at   4.285916  0.487235 -0.620885
      ESP Fit Center  165 is at   4.436727 -0.269026 -0.983947
      ESP Fit Center  166 is at   4.287461  0.124555 -0.983947
      ESP Fit Center  167 is at   4.048343  0.470978 -0.983947
      ESP Fit Center  168 is at   4.226303 -0.686892 -1.302174
      ESP Fit Center  169 is at   4.166153 -0.268540 -1.302174
      ESP Fit Center  170 is at   3.990577  0.115919 -1.302174
      ESP Fit Center  171 is at   3.713797  0.435339 -1.302174
      ESP Fit Center  172 is at   3.713797 -1.809123 -1.302174
      ESP Fit Center  173 is at   3.990577 -1.489702 -1.302174
      ESP Fit Center  174 is at   4.166153 -1.105243 -1.302174
      ESP Fit Center  175 is at   3.908076 -0.686892 -1.563336
      ESP Fit Center  176 is at   3.829292 -0.265432 -1.563336
      ESP Fit Center  177 is at   3.603579  0.099107 -1.563336
      ESP Fit Center  178 is at   3.261421  0.357493 -1.563336
      ESP Fit Center  179 is at   2.849028  0.474829 -1.563336
      ESP Fit Center  180 is at   2.422097  0.435268 -1.563336
      ESP Fit Center  181 is at   3.603579 -1.472891 -1.563336
      ESP Fit Center  182 is at   3.829292 -1.108351 -1.563336
      ESP Fit Center  183 is at   3.545014 -0.686892 -1.757397
      ESP Fit Center  184 is at   3.437347 -0.285074 -1.757397
      ESP Fit Center  185 is at   3.143196  0.009077 -1.757397
      ESP Fit Center  186 is at   2.741379  0.116744 -1.757397
      ESP Fit Center  187 is at   3.437347 -1.088709 -1.757397
      ESP Fit Center  188 is at   3.151068 -0.686892 -1.876899
      ESP Fit Center  189 is at   2.946224 -0.332090 -1.876899
      ESP Fit Center  190 is at   1.297242 -1.390570  1.631581
      ESP Fit Center  191 is at   1.502087 -1.745371  1.631581
      ESP Fit Center  192 is at   1.010964 -0.988752  1.512079
      ESP Fit Center  193 is at   0.903297 -1.390570  1.512079
      ESP Fit Center  194 is at   1.010964 -1.792387  1.512079
      ESP Fit Center  195 is at   1.305114 -2.086538  1.512079
      ESP Fit Center  196 is at   1.706932 -2.194205  1.512079
      ESP Fit Center  197 is at   0.560100 -1.604950  1.318018
      ESP Fit Center  198 is at   0.714986 -2.004757  1.318018
      ESP Fit Center  199 is at   1.003840 -2.321614  1.318018
      ESP Fit Center  200 is at   1.387650 -2.512729  1.318018
      ESP Fit Center  201 is at   1.814581 -2.552290  1.318018
      ESP Fit Center  202 is at   2.226974 -2.434954  1.318018
      ESP Fit Center  203 is at   0.457734 -2.193380  1.056856
      ESP Fit Center  204 is at   0.734513 -2.512801  1.056856
      ESP Fit Center  205 is at   1.090072 -2.741304  1.056856
      ESP Fit Center  206 is at   1.495605 -2.860380  1.056856
      ESP Fit Center  207 is at   1.918259 -2.860380  1.056856
      ESP Fit Center  208 is at   2.323792 -2.741304  1.056856
      ESP Fit Center  209 is at   0.399968 -2.548439  0.738629
      ESP Fit Center  210 is at   0.715042 -2.827570  0.738629
      ESP Fit Center  211 is at   1.087761 -3.023189  0.738629
      ESP Fit Center  212 is at   1.496465 -3.123925  0.738629
      ESP Fit Center  213 is at   2.698822 -2.827570  0.738629
      ESP Fit Center  214 is at   0.298394 -2.724808  0.375567
      ESP Fit Center  215 is at   0.618147 -2.996408  0.375567
      ESP Fit Center  216 is at   0.446209 -3.019290 -0.018378
      ESP Fit Center  217 is at   0.222008 -2.875494 -0.428068
      ESP Fit Center  218 is at   3.467762 -2.205216 -1.231703
      ESP Fit Center  219 is at   3.402280 -1.808435 -1.594765
      ESP Fit Center  220 is at   3.191856 -1.390570 -1.912992
      ESP Fit Center  221 is at   3.131706 -0.972218 -1.912992
      ESP Fit Center  222 is at   2.956130 -0.587759 -1.912992
      ESP Fit Center  223 is at   2.679351 -0.268339 -1.912992
      ESP Fit Center  224 is at   2.323792 -0.039835 -1.912992
      ESP Fit Center  225 is at   1.918259  0.079240 -1.912992
      ESP Fit Center  226 is at   3.131706 -1.808921 -1.912992
      ESP Fit Center  227 is at   2.873630 -1.390570 -2.174154
      ESP Fit Center  228 is at   2.794845 -0.969110 -2.174154
      ESP Fit Center  229 is at   2.569132 -0.604571 -2.174154
      ESP Fit Center  230 is at   2.226974 -0.346185 -2.174154
      ESP Fit Center  231 is at   1.814581 -0.228849 -2.174154
      ESP Fit Center  232 is at   2.794845 -1.812029 -2.174154
      ESP Fit Center  233 is at   2.510567 -1.390570 -2.368215
      ESP Fit Center  234 is at   2.402901 -0.988752 -2.368215
      ESP Fit Center  235 is at   2.108750 -0.694601 -2.368215
      ESP Fit Center  236 is at   1.706932 -0.586934 -2.368215
      ESP Fit Center  237 is at   1.305114 -2.086538 -2.368215
      ESP Fit Center  238 is at   2.402901 -1.792387 -2.368215
      ESP Fit Center  239 is at   2.116622 -1.390570 -2.487717
      ESP Fit Center  240 is at   1.911777 -1.035768 -2.487717
      ESP Fit Center  241 is at   1.502087 -1.035768 -2.487717
      ESP Fit Center  242 is at   1.297242 -1.390570 -2.487717
      ESP Fit Center  243 is at   1.502087 -1.745371 -2.487717
      ESP Fit Center  244 is at   1.911777 -1.745371 -2.487717
      ESP Fit Center  245 is at   1.706932 -1.390570 -2.528068
      ESP Fit Center  246 is at   0.468012 -0.785479  1.467453
      ESP Fit Center  247 is at   0.877702 -0.785479  1.427102
      ESP Fit Center  248 is at   0.058322 -0.785479  1.427102
      ESP Fit Center  249 is at   0.263167 -1.140280  1.427102
      ESP Fit Center  250 is at   0.672857 -1.140280  1.427102
      ESP Fit Center  251 is at  -0.227957 -1.187296  1.307600
      ESP Fit Center  252 is at   0.066194 -1.481447  1.307600
      ESP Fit Center  253 is at   0.468012 -1.589114  1.307600
      ESP Fit Center  254 is at  -0.678820 -0.999859  1.113540
      ESP Fit Center  255 is at  -0.523934 -1.399666  1.113540
      ESP Fit Center  256 is at  -0.235080 -1.716523  1.113540
      ESP Fit Center  257 is at   0.148730 -1.907638  1.113540
      ESP Fit Center  258 is at  -0.781186 -1.588289  0.852378
      ESP Fit Center  259 is at  -0.504407 -1.907709  0.852378
      ESP Fit Center  260 is at  -0.148848 -2.136213  0.852378
      ESP Fit Center  261 is at   0.256685 -2.255288  0.852378
      ESP Fit Center  262 is at  -0.838952 -1.943348  0.534151
      ESP Fit Center  263 is at  -0.523878 -2.222479  0.534151
      ESP Fit Center  264 is at  -0.151159 -2.418097  0.534151
      ESP Fit Center  265 is at  -0.620774 -2.391317  0.171089
      ESP Fit Center  266 is at  -0.250111 -2.587830  0.171089
      ESP Fit Center  267 is at   0.154131 -2.700067  0.171089
      ESP Fit Center  268 is at  -0.048244 -2.779378 -0.222857
      ESP Fit Center  269 is at   1.774976  0.372391 -1.799244
      ESP Fit Center  270 is at   1.717210  0.017332 -2.117471
      ESP Fit Center  271 is at   1.440430  0.336752 -2.117471
      ESP Fit Center  272 is at   0.679339 -2.255288 -2.117471
      ESP Fit Center  273 is at   1.555925 -0.364019 -2.378633
      ESP Fit Center  274 is at   1.330212  0.000520 -2.378633
      ESP Fit Center  275 is at   0.988054  0.258906 -2.378633
      ESP Fit Center  276 is at   0.575661  0.376242 -2.378633
      ESP Fit Center  277 is at   0.148730  0.336681 -2.378633
      ESP Fit Center  278 is at  -0.235080  0.145566 -2.378633
      ESP Fit Center  279 is at   0.988054 -1.829863 -2.378633
      ESP Fit Center  280 is at   1.271647 -0.785479 -2.572694
      ESP Fit Center  281 is at   1.163980 -0.383661 -2.572694
      ESP Fit Center  282 is at   0.869829 -0.089510 -2.572694
      ESP Fit Center  283 is at   0.468012  0.018157 -2.572694
      ESP Fit Center  284 is at   0.066194 -0.089510 -2.572694
      ESP Fit Center  285 is at  -0.227957 -0.383661 -2.572694
      ESP Fit Center  286 is at   0.468012 -1.589114 -2.572694
      ESP Fit Center  287 is at   0.869829 -1.481447 -2.572694
      ESP Fit Center  288 is at   1.163980 -1.187296 -2.572694
      ESP Fit Center  289 is at   0.877702 -0.785479 -2.692196
      ESP Fit Center  290 is at   0.672857 -0.430677 -2.692196
      ESP Fit Center  291 is at   0.263167 -0.430677 -2.692196
      ESP Fit Center  292 is at   0.058322 -0.785479 -2.692196
      ESP Fit Center  293 is at   0.263167 -1.140280 -2.692196
      ESP Fit Center  294 is at   0.672857 -1.140280 -2.692196
      ESP Fit Center  295 is at   0.468012 -0.785479 -2.732547
      ESP Fit Center  296 is at  -0.165351  0.526493  1.845735
      ESP Fit Center  297 is at   0.039494  0.171691  1.845735
      ESP Fit Center  298 is at  -0.451630  0.928310  1.726233
      ESP Fit Center  299 is at  -0.559297  0.526493  1.726233
      ESP Fit Center  300 is at  -0.451630  0.124675  1.726233
      ESP Fit Center  301 is at  -0.157479 -0.169476  1.726233
      ESP Fit Center  302 is at   0.244339 -0.277142  1.726233
      ESP Fit Center  303 is at  -0.902494  0.312113  1.532172
      ESP Fit Center  304 is at  -0.747608 -0.087694  1.532172
      ESP Fit Center  305 is at  -0.458754 -0.404552  1.532172
      ESP Fit Center  306 is at  -0.074943 -0.595667  1.532172
      ESP Fit Center  307 is at   0.351988 -0.635228  1.532172
      ESP Fit Center  308 is at   0.764381 -0.517892  1.532172
      ESP Fit Center  309 is at  -0.728080 -0.595738  1.271010
      ESP Fit Center  310 is at   1.729263  0.526493 -1.698838
      ESP Fit Center  311 is at   1.669113  0.944844 -1.698838
      ESP Fit Center  312 is at   1.493536  1.329304 -1.698838
      ESP Fit Center  313 is at   1.216757  1.648724 -1.698838
      ESP Fit Center  314 is at   0.861199  1.877227 -1.698838
      ESP Fit Center  315 is at   1.332252  0.947953 -1.960000
      ESP Fit Center  316 is at   1.106539  1.312492 -1.960000
      ESP Fit Center  317 is at   0.764381  1.570878 -1.960000
      ESP Fit Center  318 is at   0.940307  0.928310 -2.154061
      ESP Fit Center  319 is at   0.646156  1.222461 -2.154061
      ESP Fit Center  320 is at   0.244339  1.330128 -2.154061
      ESP Fit Center  321 is at   0.654028  0.526493 -2.273563
      ESP Fit Center  322 is at   0.449184  0.881295 -2.273563
      ESP Fit Center  323 is at   0.039494  0.881295 -2.273563
      ESP Fit Center  324 is at  -0.165351  0.526493 -2.273563
      ESP Fit Center  325 is at   0.244339  0.526493 -2.313914
      ESP Fit Center  326 is at  -0.935825  1.138182  1.693402
      ESP Fit Center  327 is at  -0.526135  1.138182  1.653051
      ESP Fit Center  328 is at  -0.730980  1.492984  1.653051
      ESP Fit Center  329 is at  -1.140670  1.492984  1.653051
      ESP Fit Center  330 is at  -1.345514  1.138182  1.653051
      ESP Fit Center  331 is at  -1.140670  0.783381  1.653051
      ESP Fit Center  332 is at  -0.730980  0.783381  1.653051
      ESP Fit Center  333 is at  -0.534007  1.834151  1.533549
      ESP Fit Center  334 is at  -0.935825  1.941818  1.533549
      ESP Fit Center  335 is at  -1.337642  1.834151  1.533549
      ESP Fit Center  336 is at  -1.631793  1.540000  1.533549
      ESP Fit Center  337 is at  -1.739460  1.138182  1.533549
      ESP Fit Center  338 is at  -0.935825  0.334547  1.533549
      ESP Fit Center  339 is at  -0.415783  2.182567  1.339488
      ESP Fit Center  340 is at  -1.638917  2.069227  1.339488
      ESP Fit Center  341 is at  -1.927771  1.752369  1.339488
      ESP Fit Center  342 is at  -2.185022  1.940993  1.078326
      ESP Fit Center  343 is at  -2.481907  1.949629  0.760099
      ESP Fit Center  344 is at  -2.598254  2.138433  0.397037
      ESP Fit Center  345 is at   0.371140  2.296052 -1.573296
      ESP Fit Center  346 is at   0.056065  2.575183 -1.573296
      ESP Fit Center  347 is at   0.313373  1.940993 -1.891523
      ESP Fit Center  348 is at   0.036594  2.260413 -1.891523
      ESP Fit Center  349 is at  -0.318965  2.488917 -1.891523
      ESP Fit Center  350 is at  -0.724498  2.607992 -1.891523
      ESP Fit Center  351 is at  -1.552685  2.488917 -1.891523
      ESP Fit Center  352 is at  -1.908243  2.260413 -1.891523
      ESP Fit Center  353 is at   0.152088  1.559642 -2.152684
      ESP Fit Center  354 is at  -0.073625  1.924181 -2.152684
      ESP Fit Center  355 is at  -0.415783  2.182567 -2.152684
      ESP Fit Center  356 is at  -0.828175  2.299903 -2.152684
      ESP Fit Center  357 is at  -1.255107  2.260342 -2.152684
      ESP Fit Center  358 is at  -1.638917  2.069227 -2.152684
      ESP Fit Center  359 is at  -0.132190  1.138182 -2.346745
      ESP Fit Center  360 is at  -0.239856  1.540000 -2.346745
      ESP Fit Center  361 is at  -0.534007  1.834151 -2.346745
      ESP Fit Center  362 is at  -0.935825  1.941818 -2.346745
      ESP Fit Center  363 is at  -1.337642  1.834151 -2.346745
      ESP Fit Center  364 is at  -0.534007  0.442214 -2.346745
      ESP Fit Center  365 is at  -0.239856  0.736365 -2.346745
      ESP Fit Center  366 is at  -0.526135  1.138182 -2.466247
      ESP Fit Center  367 is at  -0.730980  1.492984 -2.466247
      ESP Fit Center  368 is at  -1.140670  1.492984 -2.466247
      ESP Fit Center  369 is at  -0.730980  0.783381 -2.466247
      ESP Fit Center  370 is at  -0.935825  1.138182 -2.506598
      ESP Fit Center  371 is at  -2.795302  1.776260  0.722608
      ESP Fit Center  372 is at  -2.797613  2.058145  0.404381
      ESP Fit Center  373 is at  -4.143635 -0.191057 -1.172006
      ESP Fit Center  374 is at  -4.017029 -0.193966 -1.565952
      ESP Fit Center  375 is at  -3.840872 -0.574724 -1.565952
      ESP Fit Center  376 is at  -3.586981 -0.908712 -1.565952
      ESP Fit Center  377 is at  -3.873791  0.007660 -1.929014
      ESP Fit Center  378 is at  -3.724525 -0.385921 -1.929014
      ESP Fit Center  379 is at  -1.967116  1.895336 -2.247241
      ESP Fit Center  380 is at  -3.603217  0.007174 -2.247241
      ESP Fit Center  381 is at  -1.090530  0.846986 -2.508403
      ESP Fit Center  382 is at  -1.316243  1.211525 -2.508403
      ESP Fit Center  383 is at  -1.658401  1.469911 -2.508403
      ESP Fit Center  384 is at  -2.070793  1.587246 -2.508403
      ESP Fit Center  385 is at  -3.325275  0.211146 -2.508403
      ESP Fit Center  386 is at  -1.776625  1.121494 -2.702463
      ESP Fit Center  387 is at  -2.178443  1.229161 -2.702463
      ESP Fit Center  388 is at  -2.580260  1.121494 -2.702463
      ESP Fit Center  389 is at  -2.383287  0.780327 -2.821966
      ESP Fit Center  390 is at  -1.843610  0.420369  2.105736
      ESP Fit Center  391 is at  -2.185768  0.678755  2.105736
      ESP Fit Center  392 is at  -1.220885 -0.365630  1.844574
      ESP Fit Center  393 is at  -1.281035  0.052722  1.844574
      ESP Fit Center  394 is at  -1.456612  0.437181  1.844574
      ESP Fit Center  395 is at  -1.733391  0.756601  1.844574
      ESP Fit Center  396 is at  -2.088950  0.985105  1.844574
      ESP Fit Center  397 is at  -2.494483  1.104180  1.844574
      ESP Fit Center  398 is at  -2.917136  1.104180  1.844574
      ESP Fit Center  399 is at  -0.959723 -0.365630  1.526348
      ESP Fit Center  400 is at  -1.010461  0.052236  1.526348
      ESP Fit Center  401 is at  -2.086639  1.266989  1.526348
      ESP Fit Center  402 is at  -2.495342  1.367725  1.526348
      ESP Fit Center  403 is at  -2.916277  1.367725  1.526348
      ESP Fit Center  404 is at  -3.324980  1.266989  1.526348
      ESP Fit Center  405 is at  -3.697700  1.071371  1.526348
      ESP Fit Center  406 is at  -1.010461 -0.783496  1.526348
      ESP Fit Center  407 is at  -2.600772  1.571672  1.163285
      ESP Fit Center  408 is at  -3.019690  1.548959  1.163285
      ESP Fit Center  409 is at  -3.423932  1.436721  1.163285
      ESP Fit Center  410 is at  -3.794595  1.240208  1.163285
      ESP Fit Center  411 is at  -4.114347  0.968608  1.163285
      ESP Fit Center  412 is at  -0.944980 -1.180277  1.163285
      ESP Fit Center  413 is at  -0.811022 -0.782704  1.163285
      ESP Fit Center  414 is at  -3.222066  1.628269  0.769340
      ESP Fit Center  415 is at  -3.612867  1.483532  0.769340
      ESP Fit Center  416 is at  -3.966533  1.263091  0.769340
      ESP Fit Center  417 is at  -4.268585  0.975969  0.769340
      ESP Fit Center  418 is at  -4.506657  0.633922  0.769340
      ESP Fit Center  419 is at  -1.015325 -1.542242  0.769340
      ESP Fit Center  420 is at  -3.872507  1.380456  0.359650
      ESP Fit Center  421 is at  -4.190734  1.119294  0.359650
      ESP Fit Center  422 is at  -4.451896  0.801068  0.359650
      ESP Fit Center  423 is at  -4.645957  0.438005  0.359650
      ESP Fit Center  424 is at  -4.765459  0.044060  0.359650
      ESP Fit Center  425 is at  -1.539112 -2.111716  0.359650
      ESP Fit Center  426 is at  -1.220885 -1.850554  0.359650
      ESP Fit Center  427 is at  -4.268585  0.975969 -0.050040
      ESP Fit Center  428 is at  -4.506657  0.633922 -0.050040
      ESP Fit Center  429 is at  -4.671002  0.250953 -0.050040
      ESP Fit Center  430 is at  -4.754891 -0.157259 -0.050040
      ESP Fit Center  431 is at  -4.754891 -0.574001 -0.050040
      ESP Fit Center  432 is at  -1.990483 -2.297070 -0.050040
      ESP Fit Center  433 is at  -1.616329 -2.113539 -0.050040
      ESP Fit Center  434 is at  -4.544396  0.253862 -0.443985
      ESP Fit Center  435 is at  -4.634583 -0.155863 -0.443985
      ESP Fit Center  436 is at  -4.634583 -0.575397 -0.443985
      ESP Fit Center  437 is at  -4.544396 -0.985122 -0.443985
      ESP Fit Center  438 is at  -4.368238 -1.365880 -0.443985
      ESP Fit Center  439 is at  -2.600772 -2.302932 -0.443985
      ESP Fit Center  440 is at  -2.186765 -2.235059 -0.443985
      ESP Fit Center  441 is at  -1.797028 -2.079773 -0.443985
      ESP Fit Center  442 is at  -4.401158  0.052236 -0.807047
      ESP Fit Center  443 is at  -4.451896 -0.365630 -0.807047
      ESP Fit Center  444 is at  -4.401158 -0.783496 -0.807047
      ESP Fit Center  445 is at  -4.251892 -1.177077 -0.807047
      ESP Fit Center  446 is at  -4.012774 -1.523499 -0.807047
      ESP Fit Center  447 is at  -3.697700 -1.802631 -0.807047
      ESP Fit Center  448 is at  -3.324980 -1.998249 -0.807047
      ESP Fit Center  449 is at  -2.916277 -2.098985 -0.807047
      ESP Fit Center  450 is at  -2.495342 -2.098985 -0.807047
      ESP Fit Center  451 is at  -2.086639 -1.998249 -0.807047
      ESP Fit Center  452 is at  -4.190734 -0.365630 -1.125274
      ESP Fit Center  453 is at  -4.130584 -0.783981 -1.125274
      ESP Fit Center  454 is at  -3.955007 -1.168441 -1.125274
      ESP Fit Center  455 is at  -3.678228 -1.487861 -1.125274
      ESP Fit Center  456 is at  -3.322669 -1.716365 -1.125274
      ESP Fit Center  457 is at  -2.917136 -1.835440 -1.125274
      ESP Fit Center  458 is at  -2.494483 -1.835440 -1.125274
      ESP Fit Center  459 is at  -3.697756 -0.979817 -1.386436
      ESP Fit Center  460 is at  -3.408902 -1.296675 -1.386436
      ESP Fit Center  461 is at  -3.125803 -0.997230  3.309475
      ESP Fit Center  462 is at  -2.716114 -0.997230  3.269124
      ESP Fit Center  463 is at  -2.920958 -0.642429  3.269124
      ESP Fit Center  464 is at  -3.330648 -0.642429  3.269124
      ESP Fit Center  465 is at  -3.535493 -0.997230  3.269124
      ESP Fit Center  466 is at  -3.330648 -1.352032  3.269124
      ESP Fit Center  467 is at  -2.920958 -1.352032  3.269124
      ESP Fit Center  468 is at  -2.322168 -0.997230  3.149622
      ESP Fit Center  469 is at  -2.429835 -0.595413  3.149622
      ESP Fit Center  470 is at  -2.723986 -0.301262  3.149622
      ESP Fit Center  471 is at  -3.125803 -0.193595  3.149622
      ESP Fit Center  472 is at  -3.527621 -0.301262  3.149622
      ESP Fit Center  473 is at  -3.821772 -0.595413  3.149622
      ESP Fit Center  474 is at  -3.929439 -0.997230  3.149622
      ESP Fit Center  475 is at  -3.821772 -1.399048  3.149622
      ESP Fit Center  476 is at  -3.527621 -1.693199  3.149622
      ESP Fit Center  477 is at  -3.125803 -1.800866  3.149622
      ESP Fit Center  478 is at  -2.723986 -1.693199  3.149622
      ESP Fit Center  479 is at  -2.429835 -1.399048  3.149622
      ESP Fit Center  480 is at  -1.959106 -0.997230  2.955561
      ESP Fit Center  481 is at  -2.037890 -0.575771  2.955561
      ESP Fit Center  482 is at  -2.263603 -0.211231  2.955561
      ESP Fit Center  483 is at  -2.605762  0.047154  2.955561
      ESP Fit Center  484 is at  -3.018154  0.164490  2.955561
      ESP Fit Center  485 is at  -3.445085  0.124929  2.955561
      ESP Fit Center  486 is at  -3.828896 -0.066186  2.955561
      ESP Fit Center  487 is at  -4.117750 -0.383043  2.955561
      ESP Fit Center  488 is at  -4.272636 -0.782850  2.955561
      ESP Fit Center  489 is at  -4.272636 -1.211611  2.955561
      ESP Fit Center  490 is at  -4.117750 -1.611417  2.955561
      ESP Fit Center  491 is at  -3.828896 -1.928275  2.955561
      ESP Fit Center  492 is at  -3.445085 -2.119390  2.955561
      ESP Fit Center  493 is at  -3.018154 -2.158951  2.955561
      ESP Fit Center  494 is at  -2.605762 -2.041615  2.955561
      ESP Fit Center  495 is at  -2.263603 -1.783229  2.955561
      ESP Fit Center  496 is at  -2.037890 -1.418690  2.955561
      ESP Fit Center  497 is at  -1.640879 -0.997230  2.694399
      ESP Fit Center  498 is at  -1.701029 -0.578879  2.694399
      ESP Fit Center  499 is at  -1.876606 -0.194420  2.694399
      ESP Fit Center  500 is at  -2.153385  0.125000  2.694399
      ESP Fit Center  501 is at  -2.508944  0.353504  2.694399
      ESP Fit Center  502 is at  -2.914477  0.472579  2.694399
      ESP Fit Center  503 is at  -3.337130  0.472579  2.694399
      ESP Fit Center  504 is at  -3.742663  0.353504  2.694399
      ESP Fit Center  505 is at  -4.098222  0.125000  2.694399
      ESP Fit Center  506 is at  -4.375001 -0.194420  2.694399
      ESP Fit Center  507 is at  -4.550578 -0.578879  2.694399
      ESP Fit Center  508 is at  -4.610728 -0.997230  2.694399
      ESP Fit Center  509 is at  -4.550578 -1.415582  2.694399
      ESP Fit Center  510 is at  -4.375001 -1.800041  2.694399
      ESP Fit Center  511 is at  -4.098222 -2.119461  2.694399
      ESP Fit Center  512 is at  -3.742663 -2.347965  2.694399
      ESP Fit Center  513 is at  -3.337130 -2.467040  2.694399
      ESP Fit Center  514 is at  -2.914477 -2.467040  2.694399
      ESP Fit Center  515 is at  -2.508944 -2.347965  2.694399
      ESP Fit Center  516 is at  -2.153385 -2.119461  2.694399
      ESP Fit Center  517 is at  -1.876606 -1.800041  2.694399
[...]
 5142 Fit       0.012549
 5143 Fit       0.013529
 5144 Fit       0.014803
 5145 Fit       0.016465
 5146 Fit       0.018672
 5147 Fit       0.021628
 5148 Fit       0.011431
 5149 Fit       0.011252
 5150 Fit       0.011565
 5151 Fit       0.012211
 5152 Fit       0.013132
 5153 Fit       0.014343
 5154 Fit       0.015935
 5155 Fit       0.018086
 5156 Fit       0.021103
 5157 Fit       0.010872
 5158 Fit       0.010636
 5159 Fit       0.010904
 5160 Fit       0.011501
 5161 Fit       0.012355
 5162 Fit       0.013463
 5163 Fit       0.014890
 5164 Fit       0.016785
 5165 Fit       0.019420
 5166 Fit       0.023274
 5167 Fit       0.009457
 5168 Fit       0.009656
 5169 Fit       0.010185
 5170 Fit       0.010951
 5171 Fit       0.011925
 5172 Fit       0.013133
 5173 Fit       0.014666
 5174 Fit       0.016703
 5175 Fit       0.019571
 5176 Fit       0.007979
 5177 Fit       0.008649
 5178 Fit       0.009498
 5179 Fit       0.010506
 5180 Fit       0.011698
 5181 Fit       0.013151
 5182 Fit       0.015022
 5183 Fit       0.017602
 5184 Fit       0.006260
 5185 Fit       0.007261
 5186 Fit       0.008332
 5187 Fit       0.009493
 5188 Fit       0.010798
 5189 Fit       0.012349
 5190 Fit       0.014326
 5191 Fit       0.004377
 5192 Fit       0.005641
 5193 Fit       0.006853
 5194 Fit       0.008059
 5195 Fit       0.009310
 5196 Fit       0.010667
 5197 Fit       0.012187
 5198 Fit       0.002806
 5199 Fit       0.004231
 5200 Fit       0.005455
 5201 Fit       0.006487
 5202 Fit       0.007239
 5203 Fit       0.002949
 5204 Fit       0.001234
 5205 Fit       0.002847
 5206 Fit       0.003484
 5207 Fit       0.002114
 5208 Fit       0.002649
 5209 Fit       0.004264
 5210 Fit       0.005141
 5211 Fit       0.005341
 5212 Fit       0.004803
 5213 Fit       0.003284
 5214 Fit       0.002595
 5215 Fit       0.004308
 5216 Fit       0.005481
 5217 Fit       0.006247
 5218 Fit       0.006684
 5219 Fit       0.006827
 5220 Fit       0.006663
 5221 Fit       0.006079
 5222 Fit       0.003569
 5223 Fit       0.005047
 5224 Fit       0.006084
 5225 Fit       0.006827
 5226 Fit       0.007355
 5227 Fit       0.007708
 5228 Fit       0.007916
 5229 Fit       0.007999
 5230 Fit       0.007951
 5231 Fit       0.007680
 5232 Fit       0.005247
 5233 Fit       0.006244
 5234 Fit       0.006968
 5235 Fit       0.007524
 5236 Fit       0.007958
 5237 Fit       0.008289
 5238 Fit       0.008539
 5239 Fit       0.008737
 5240 Fit       0.008918
 5241 Fit       0.009112
 5242 Fit       0.009301
 5243 Fit       0.006661
 5244 Fit       0.007179
 5245 Fit       0.007603
 5246 Fit       0.007974
 5247 Fit       0.008298
 5248 Fit       0.008575
 5249 Fit       0.008810
 5250 Fit       0.009024
 5251 Fit       0.009251
 5252 Fit       0.009546
 5253 Fit       0.009978
 5254 Fit       0.010610
 5255 Fit       0.007685
 5256 Fit       0.007781
 5257 Fit       0.007950
 5258 Fit       0.008167
 5259 Fit       0.008397
 5260 Fit       0.008618
 5261 Fit       0.008823
 5262 Fit       0.009025
 5263 Fit       0.009256
 5264 Fit       0.009578
 5265 Fit       0.010085
 5266 Fit       0.010912
 5267 Fit       0.008355
 5268 Fit       0.008051
 5269 Fit       0.007990
 5270 Fit       0.008066
 5271 Fit       0.008207
 5272 Fit       0.008369
 5273 Fit       0.008535
 5274 Fit       0.008705
 5275 Fit       0.008907
 5276 Fit       0.009193
 5277 Fit       0.009651
 5278 Fit       0.010427
 5279 Fit       0.008164
 5280 Fit       0.007760
 5281 Fit       0.007643
 5282 Fit       0.007674
 5283 Fit       0.007772
 5284 Fit       0.007894
 5285 Fit       0.008024
 5286 Fit       0.008170
 5287 Fit       0.008362
 5288 Fit       0.008662
 5289 Fit       0.009177
 5290 Fit       0.010086
 5291 Fit       0.007313
 5292 Fit       0.006958
 5293 Fit       0.006868
 5294 Fit       0.006903
 5295 Fit       0.006987
 5296 Fit       0.007083
 5297 Fit       0.007183
 5298 Fit       0.007307
 5299 Fit       0.007501
 5300 Fit       0.007851
 5301 Fit       0.008507
 5302 Fit       0.005767
 5303 Fit       0.005688
 5304 Fit       0.005726
 5305 Fit       0.005797
 5306 Fit       0.005862
 5307 Fit       0.005913
 5308 Fit       0.005968
 5309 Fit       0.006072
 5310 Fit       0.006310
 5311 Fit       0.004063
 5312 Fit       0.004150
 5313 Fit       0.004223
 5314 Fit       0.004246
 5315 Fit       0.004211
 5316 Fit       0.004126
 5317 Fit       0.002143
 5318 Fit       0.002215
 5319 Fit       0.002141
 5320 Fit       0.000108
 5321 Fit       0.001045
 5322 Fit      -0.000118
 5323 Fit       0.001370
 5324 Fit       0.002398
 5325 Fit       0.003089
 5326 Fit       0.003557
 5327 Fit      -0.001774
 5328 Fit       0.000249
 5329 Fit       0.001767
 5330 Fit       0.002895
 5331 Fit       0.003724
 5332 Fit       0.004348
 5333 Fit       0.004875
 5334 Fit       0.005442
 5335 Fit      -0.000493
 5336 Fit       0.001265
 5337 Fit       0.002607
 5338 Fit       0.003634
 5339 Fit       0.004413
 5340 Fit       0.005002
 5341 Fit       0.005472
 5342 Fit       0.005919
 5343 Fit       0.006485
 5344 Fit       0.007385
 5345 Fit       0.000959
 5346 Fit       0.002351
 5347 Fit       0.003441
 5348 Fit       0.004302
 5349 Fit       0.004976
 5350 Fit       0.005493
 5351 Fit       0.005889
 5352 Fit       0.006213
 5353 Fit       0.006540
 5354 Fit       0.006987
 5355 Fit       0.007742
 5356 Fit       0.001962
 5357 Fit       0.003089
 5358 Fit       0.003985
 5359 Fit       0.004719
 5360 Fit       0.005315
 5361 Fit       0.005785
 5362 Fit       0.006139
 5363 Fit       0.006398
 5364 Fit       0.006598
 5365 Fit       0.006800
 5366 Fit       0.007104
 5367 Fit       0.007672
 5368 Fit       0.004228
 5369 Fit       0.004727
 5370 Fit       0.005196
 5371 Fit       0.005622
 5372 Fit       0.005986
 5373 Fit       0.006271
 5374 Fit       0.006471
 5375 Fit       0.006595
 5376 Fit       0.006665
 5377 Fit       0.006725
 5378 Fit       0.006844
 5379 Fit       0.007139
 5380 Fit       0.007799
 5381 Fit       0.005915
 5382 Fit       0.005796
 5383 Fit       0.005865
 5384 Fit       0.006026
 5385 Fit       0.006210
 5386 Fit       0.006367
 5387 Fit       0.006468
 5388 Fit       0.006502
 5389 Fit       0.006470
 5390 Fit       0.006391
 5391 Fit       0.006301
 5392 Fit       0.006258
 5393 Fit       0.006349
 5394 Fit       0.006623
 5395 Fit       0.006364
 5396 Fit       0.006295
 5397 Fit       0.006296
 5398 Fit       0.006292
 5399 Fit       0.006240
 5400 Fit       0.006120
 5401 Fit       0.005927
 5402 Fit       0.005672
 5403 Fit       0.005382
 5404 Fit       0.005093
 5405 Fit       0.004849
 5406 Fit       0.007482
 5407 Fit       0.006670
 5408 Fit       0.006278
 5409 Fit       0.006073
 5410 Fit       0.005921
 5411 Fit       0.005744
 5412 Fit       0.005496
 5413 Fit       0.005156
 5414 Fit       0.004716
 5415 Fit       0.004177
 5416 Fit       0.003537
 5417 Fit       0.006800
 5418 Fit       0.006049
 5419 Fit       0.005619
 5420 Fit       0.005308
 5421 Fit       0.004999
 5422 Fit       0.004620
 5423 Fit       0.004126
 5424 Fit       0.003489
 5425 Fit       0.002682
 5426 Fit       0.001660
 5427 Fit       0.005817
 5428 Fit       0.005039
 5429 Fit       0.004523
 5430 Fit       0.004065
 5431 Fit       0.003539
 5432 Fit       0.002860
 5433 Fit       0.001967
 5434 Fit       0.000790
 5435 Fit       0.003449
 5436 Fit       0.002868
 5437 Fit       0.002207
 5438 Fit       0.001340
 5439 Fit       0.000162
 5440 Fit      -0.003180
 5441 Fit      -0.001608
 5442 Fit      -0.000380
 5443 Fit       0.000578
 5444 Fit       0.001357
 5445 Fit       0.002079
 5446 Fit      -0.002118
 5447 Fit      -0.000657
 5448 Fit       0.000545
 5449 Fit       0.001521
 5450 Fit       0.002315
 5451 Fit       0.002987
 5452 Fit       0.003628
 5453 Fit       0.004380
 5454 Fit      -0.001613
 5455 Fit      -0.000315
 5456 Fit       0.000862
 5457 Fit       0.001888
 5458 Fit       0.002752
 5459 Fit       0.003466
 5460 Fit       0.004060
 5461 Fit       0.004586
 5462 Fit       0.005131
 5463 Fit       0.005837
 5464 Fit       0.000947
 5465 Fit       0.001622
 5466 Fit       0.002398
 5467 Fit       0.003160
 5468 Fit       0.003849
 5469 Fit       0.004440
 5470 Fit       0.004932
 5471 Fit       0.005342
 5472 Fit       0.005713
 5473 Fit       0.006113
 5474 Fit       0.006652
 5475 Fit       0.003625
 5476 Fit       0.003662
 5477 Fit       0.004008
 5478 Fit       0.004472
 5479 Fit       0.004949
 5480 Fit       0.005381
 5481 Fit       0.005743
 5482 Fit       0.006031
 5483 Fit       0.006262
 5484 Fit       0.006469
 5485 Fit       0.006706
 5486 Fit       0.007050
 5487 Fit       0.005819
 5488 Fit       0.005434
 5489 Fit       0.005471
 5490 Fit       0.005698
 5491 Fit       0.005980
 5492 Fit       0.006244
 5493 Fit       0.006451
 5494 Fit       0.006587
 5495 Fit       0.006656
 5496 Fit       0.006676
 5497 Fit       0.006672
 5498 Fit       0.006664
 5499 Fit       0.007181
 5500 Fit       0.006627
 5501 Fit       0.006496
 5502 Fit       0.006557
 5503 Fit       0.006676
 5504 Fit       0.006773
 5505 Fit       0.006804
 5506 Fit       0.006750
 5507 Fit       0.006601
 5508 Fit       0.006352
 5509 Fit       0.005978
 5510 Fit       0.005401
 5511 Fit       0.009010
 5512 Fit       0.007809
 5513 Fit       0.007247
 5514 Fit       0.007029
 5515 Fit       0.006965
 5516 Fit       0.006933
 5517 Fit       0.006858
 5518 Fit       0.006693
 5519 Fit       0.006407
 5520 Fit       0.005969
 5521 Fit       0.005330
 5522 Fit       0.004391
 5523 Fit       0.008459
 5524 Fit       0.007651
 5525 Fit       0.007237
 5526 Fit       0.007017
 5527 Fit       0.006841
 5528 Fit       0.006608
 5529 Fit       0.006245
 5530 Fit       0.005695
 5531 Fit       0.004891
 5532 Fit       0.003727
 5533 Fit       0.008297
 5534 Fit       0.007564
 5535 Fit       0.007078
 5536 Fit       0.006748
 5537 Fit       0.006438
 5538 Fit       0.006031
 5539 Fit       0.005431
 5540 Fit       0.004548
 5541 Fit       0.003273
 5542 Fit       0.006695
 5543 Fit       0.006384
 5544 Fit       0.006027
 5545 Fit       0.005560
 5546 Fit       0.004859
 5547 Fit       0.003794
 5548 Fit       0.002233
 5549 Fit       0.005119
 5550 Fit       0.004726
 5551 Fit       0.003847
 5552 Fit       0.002339
 5553 Fit       0.003350
 5554 Fit       0.002606
 5555 Fit      -0.009244
 5556 Fit      -0.005729
 5557 Fit      -0.003604
 5558 Fit      -0.003676
 5559 Fit      -0.002095
 5560 Fit      -0.000588
 5561 Fit       0.000931
 5562 Fit       0.002672
 5563 Fit       0.001110
 5564 Fit       0.001679
 5565 Fit       0.002493
 5566 Fit       0.003518
 5567 Fit       0.004866
 5568 Fit       0.005993
 5569 Fit       0.005184
 5570 Fit       0.005061
 5571 Fit       0.005366
 5572 Fit       0.006031
 5573 Fit       0.007135
 5574 Fit       0.011770
 5575 Fit       0.009326
 5576 Fit       0.008069
 5577 Fit       0.007547
 5578 Fit       0.007529
 5579 Fit       0.007942
 5580 Fit       0.008835
 5581 Fit       0.013917
 5582 Fit       0.011399
 5583 Fit       0.009932
 5584 Fit       0.009157
 5585 Fit       0.008871
 5586 Fit       0.008973
 5587 Fit       0.009415
 5588 Fit       0.014240
 5589 Fit       0.011950
 5590 Fit       0.010537
 5591 Fit       0.009702
 5592 Fit       0.009236
 5593 Fit       0.008939
 5594 Fit       0.016684
 5595 Fit       0.013678
 5596 Fit       0.011650
 5597 Fit       0.010262
 5598 Fit       0.009219
 5599 Fit       0.008199
 5600 Fit       0.014590
 5601 Fit       0.012103
 5602 Fit       0.010228
 5603 Fit       0.008600
 5604 Fit       0.014392
 5605 Fit       0.011641
 5606 Fit       0.009231
 5607 Fit       0.006786
 5608 Fit       0.012678
 5609 Fit       0.010514
 5610 Fit       0.007394
 5611 Fit       0.011891
 5612 Fit       0.012217
 5613 Fit       0.008497
 5614 Fit       0.008053
 5615 Fit       0.011398
 5616 Fit       0.014895
 5617 Fit       0.015173
 5618 Fit       0.012578
 5619 Fit       0.008204
 5620 Fit       0.017609
 5621 Fit       0.018457
 5622 Fit       0.017920
 5623 Fit       0.015996
 5624 Fit       0.013220
 5625 Fit       0.020088
 5626 Fit       0.020717
 5627 Fit       0.020720
 5628 Fit       0.020159
 5629 Fit       0.018890
 5630 Fit       0.016662
 5631 Fit       0.022434
 5632 Fit       0.022472
 5633 Fit       0.022356
 5634 Fit       0.022004
 5635 Fit       0.021277
 5636 Fit       0.019970
 5637 Fit       0.017808
 5638 Fit       0.023670
 5639 Fit       0.023494
 5640 Fit       0.023419
 5641 Fit       0.023312
 5642 Fit       0.023047
 5643 Fit       0.022482
 5644 Fit       0.021426
 5645 Fit       0.019601
 5646 Fit       0.024048
 5647 Fit       0.023834
 5648 Fit       0.023857
 5649 Fit       0.023968
 5650 Fit       0.024067
 5651 Fit       0.024065
 5652 Fit       0.023856
 5653 Fit       0.023286
 5654 Fit       0.022122
 5655 Fit       0.023883
 5656 Fit       0.023510
 5657 Fit       0.023568
 5658 Fit       0.023849
 5659 Fit       0.024245
 5660 Fit       0.024691
 5661 Fit       0.025135
 5662 Fit       0.025512
 5663 Fit       0.025715
 5664 Fit       0.022396
 5665 Fit       0.022505
 5666 Fit       0.022922
 5667 Fit       0.023535
 5668 Fit       0.024293
 5669 Fit       0.025182
 5670 Fit       0.026204
 5671 Fit       0.027361
 5672 Fit       0.020355
 5673 Fit       0.020492
 5674 Fit       0.021010
 5675 Fit       0.021780
 5676 Fit       0.022754
 5677 Fit       0.023933
 5678 Fit       0.025357
 5679 Fit       0.027103
 5680 Fit       0.017105
 5681 Fit       0.017665
 5682 Fit       0.018535
 5683 Fit       0.019647
 5684 Fit       0.020993
 5685 Fit       0.022614
 5686 Fit       0.024614
 5687 Fit       0.016309
 5688 Fit       0.018049
 5689 Fit       0.022789
 5690 Fit       0.019012
 5691 Fit       0.027447
 5692 Fit       0.023610
 5693 Fit       0.020593
 5694 Fit       0.017870
 5695 Fit       0.015076
 5696 Fit       0.026506
 5697 Fit       0.023661
 5698 Fit       0.021389
 5699 Fit       0.019362
 5700 Fit       0.017359
 5701 Fit       0.015206
 5702 Fit       0.012730
 5703 Fit       0.011560
 5704 Fit       0.026053
 5705 Fit       0.023878
 5706 Fit       0.022126
 5707 Fit       0.020577
 5708 Fit       0.019082
 5709 Fit       0.017528
 5710 Fit       0.015821
 5711 Fit       0.013868
 5712 Fit       0.013249
 5713 Fit       0.024284
 5714 Fit       0.023125
 5715 Fit       0.022057
 5716 Fit       0.021037
 5717 Fit       0.020013
 5718 Fit       0.018934
 5719 Fit       0.017756
 5720 Fit       0.016440
 5721 Fit       0.014949
 5722 Fit       0.014715
 5723 Fit       0.013394
 5724 Fit       0.021513
 5725 Fit       0.021313
 5726 Fit       0.020906
 5727 Fit       0.020365
 5728 Fit       0.019713
 5729 Fit       0.018950
 5730 Fit       0.018071
 5731 Fit       0.017071
 5732 Fit       0.015950
 5733 Fit       0.015943
 5734 Fit       0.015060
 5735 Fit       0.014297
 5736 Fit       0.019231
 5737 Fit       0.019853
 5738 Fit       0.020011
 5739 Fit       0.019882
 5740 Fit       0.019551
 5741 Fit       0.019058
 5742 Fit       0.018427
 5743 Fit       0.017679
 5744 Fit       0.016837
 5745 Fit       0.016939
 5746 Fit       0.016410
 5747 Fit       0.016112
 5748 Fit       0.016577
 5749 Fit       0.018144
 5750 Fit       0.018943
 5751 Fit       0.019268
 5752 Fit       0.019277
 5753 Fit       0.019059
 5754 Fit       0.018668
 5755 Fit       0.018148
 5756 Fit       0.017550
 5757 Fit       0.017722
 5758 Fit       0.017505
 5759 Fit       0.017586
 5760 Fit       0.013887
 5761 Fit       0.016272
 5762 Fit       0.017682
 5763 Fit       0.018460
 5764 Fit       0.018816
 5765 Fit       0.018877
 5766 Fit       0.018728
 5767 Fit       0.018436
 5768 Fit       0.018072
 5769 Fit       0.018320
 5770 Fit       0.018388
 5771 Fit       0.013051
 5772 Fit       0.015541
 5773 Fit       0.017102
 5774 Fit       0.018013
 5775 Fit       0.018475
 5776 Fit       0.018628
 5777 Fit       0.018580
 5778 Fit       0.018437
 5779 Fit       0.018756
 5780 Fit       0.019116
 5781 Fit       0.013016
 5782 Fit       0.015290
 5783 Fit       0.016826
 5784 Fit       0.017771
 5785 Fit       0.018289
 5786 Fit       0.018527
 5787 Fit       0.018628
 5788 Fit       0.019055
 5789 Fit       0.015050
 5790 Fit       0.016593
 5791 Fit       0.017626
 5792 Fit       0.018252
 5793 Fit       0.018651
 5794 Fit       0.019230
 5795 Fit       0.016460
 5796 Fit       0.017625
 5797 Fit       0.018463
 5798 Fit       0.012711
 5799 Fit       0.014346
 5800 Fit       0.015033
 5801 Fit       0.014157
 5802 Fit       0.013834
 5803 Fit       0.014087
 5804 Fit       0.014902
 5805 Fit       0.016237
 5806 Fit       0.018033
 5807 Fit       0.016827
 5808 Fit       0.015918
 5809 Fit       0.015377
 5810 Fit       0.015245
 5811 Fit       0.015516
 5812 Fit       0.016137
 5813 Fit       0.016978
 5814 Fit       0.018772
 5815 Fit       0.017800
 5816 Fit       0.016975
 5817 Fit       0.016396
 5818 Fit       0.016119
 5819 Fit       0.016148
 5820 Fit       0.016411
 5821 Fit       0.016737
 5822 Fit       0.016807
 5823 Fit       0.018155
 5824 Fit       0.017542
 5825 Fit       0.017010
 5826 Fit       0.016657
 5827 Fit       0.016506
 5828 Fit       0.016490
 5829 Fit       0.016430
 5830 Fit       0.016021
 5831 Fit       0.014919
 5832 Fit       0.012987
 5833 Fit       0.010582
 5834 Fit       0.008392
 5835 Fit       0.006889
 5836 Fit       0.006158
 5837 Fit       0.006250
 5838 Fit       0.007376
 5839 Fit       0.018686
 5840 Fit       0.017540
 5841 Fit       0.017193
 5842 Fit       0.016852
 5843 Fit       0.016598
 5844 Fit       0.016367
 5845 Fit       0.015949
 5846 Fit       0.015059
 5847 Fit       0.013572
 5848 Fit       0.011775
 5849 Fit       0.010249
 5850 Fit       0.009434
 5851 Fit       0.009539
 5852 Fit       0.010649
 5853 Fit       0.012558
 5854 Fit       0.014686
 5855 Fit       0.016410
 5856 Fit       0.017403
 5857 Fit       0.017700
 5858 Fit       0.016867
 5859 Fit       0.016696
 5860 Fit       0.016379
 5861 Fit       0.015883
 5862 Fit       0.014961
 5863 Fit       0.013579
 5864 Fit       0.012296
 5865 Fit       0.011851
 5866 Fit       0.012575
 5867 Fit       0.014149
 5868 Fit       0.015726
 5869 Fit       0.016647
 5870 Fit       0.016075
 5871 Fit       0.015880
 5872 Fit       0.014985
 5873 Fit       0.013871
 5874 Fit       0.014019
 5875 Fit       0.015327
 5876 Fit       0.015101
 -----------------------------------------------------------------
 Leave Link  602 at Fri Sep 16 13:10:38 2022, MaxMem= 1048576000 cpu:       3.8

 Test job not archived.
 1\1\GINC-B100\FOpt\RHF\6-31G(d)\C8H8N2\SAPATEL\16-Sep-2022\0\\#HF/6-31
 G* SCF=tight Test Pop=MK iop(6/33=2) iop(6/42=6) opt # iop(6/50=1)\\re
 mark line goes here\\0,1\C,27.2766850626,7.4324137632,4.7273250796\C,2
 6.3548426679,6.7559937446,5.4987056024\C,25.5956136313,5.7278725666,4.
 9563801294\C,25.7764976256,5.3975766059,3.6278218225\C,26.6962292738,6
 .0751033758,2.8390947701\C,27.4599633111,7.0993474926,3.3845377032\N,2
 8.4415813559,7.7911809851,2.659181412\C,28.5438806976,7.6940599098,1.2
 330424303\C,27.4045949353,8.2806046503,0.4737547451\N,26.5479174349,8.
 7426202729,-0.1099847596\H,27.8685158324,8.2191525222,5.1627394059\H,2
 6.2299395732,7.0312967967,6.5308851261\H,24.8780361205,5.2017857522,5.
 5588344374\H,25.1941193793,4.6092537622,3.185111613\H,26.7950617644,5.
 7991508096,1.8065166318\H,28.6037361163,8.7130447214,3.0011027979\H,29
 .4417315271,8.2093076934,0.9186343178\H,28.6540536906,6.6612345755,0.9
 33316735\\Version=EM64L-G09RevA.02\State=1-A\HF=-416.487053\RMSD=6.802
 e-09\RMSF=8.968e-06\Dipole=1.0197806,-0.2880341,0.6931673\Quadrupole=1
 .7548234,0.8488649,-2.6036883,6.4633676,-6.8534258,6.0730278\PG=C01 [X
 (C8H8N2)]\\@


 A COMPUTER IS LIKE A HORSE, IT WILL SENSE WEAKNESS.
     -- GREG WETTSTEIN
 Job cpu time:  0 days  0 hours 31 minutes 33.3 seconds.
 File lengths (MBytes):  RWF=     83 Int=      0 D2E=      0 Chk=      4 Scr=      2
 Normal termination of Gaussian 09 at Fri Sep 16 13:10:39 2022.
